157682
  -OEChem-01202205182D

107108  0     1  0  0  0  0  0999 V2000
   13.9253   -2.2985    0.0000 O   0  0  0  0  0  0  0  0  0  0  0  0
   15.8933   -2.9979    0.0000 O   0  0  0  0  0  0  0  0  0  0  0  0
   11.9573   -2.9979    0.0000 O   0  0  0  0  0  0  0  0  0  0  0  0
   19.2817   -2.2777    0.0000 O   0  0  0  0  0  0  0  0  0  0  0  0
   19.6090    0.3478    0.0000 O   0  0  0  0  0  0  0  0  0  0  0  0
   24.6916    1.4281    0.0000 O   0  0  0  0  0  0  0  0  0  0  0  0
   28.0719    1.4682    0.0000 O   0  0  0  0  0  0  0  0  0  0  0  0
   27.9786   -0.3114    0.0000 O   0  0  0  0  0  0  0  0  0  0  0  0
   14.7343   -1.7107    0.0000 C   0  0  3  0  0  0  0  0  0  0  0  0
   13.1163   -1.7107    0.0000 C   0  0  3  0  0  0  0  0  0  0  0  0
   14.4253   -0.7597    0.0000 C   0  0  0  0  0  0  0  0  0  0  0  0
   13.4253   -0.7597    0.0000 C   0  0  0  0  0  0  0  0  0  0  0  0
   15.6854   -2.0197    0.0000 C   0  0  3  0  0  0  0  0  0  0  0  0
   12.1652   -2.0197    0.0000 C   0  0  3  0  0  0  0  0  0  0  0  0
   16.4285   -1.3506    0.0000 C   0  0  0  0  0  0  0  0  0  0  0  0
   11.4221   -1.3506    0.0000 C   0  0  0  0  0  0  0  0  0  0  0  0
   17.3796   -1.6596    0.0000 C   0  0  0  0  0  0  0  0  0  0  0  0
   10.4710   -1.6596    0.0000 C   0  0  0  0  0  0  0  0  0  0  0  0
   18.1227   -0.9905    0.0000 C   0  0  0  0  0  0  0  0  0  0  0  0
    9.7279   -0.9905    0.0000 C   0  0  0  0  0  0  0  0  0  0  0  0
   19.0738   -1.2995    0.0000 C   0  0  3  0  0  0  0  0  0  0  0  0
   19.8169   -0.6304    0.0000 C   0  0  3  0  0  0  0  0  0  0  0  0
    8.7768   -1.2995    0.0000 C   0  0  0  0  0  0  0  0  0  0  0  0
   20.7680   -0.9394    0.0000 C   0  0  0  0  0  0  0  0  0  0  0  0
    8.0337   -0.6304    0.0000 C   0  0  0  0  0  0  0  0  0  0  0  0
   21.5111   -0.2703    0.0000 C   0  0  0  0  0  0  0  0  0  0  0  0
    7.0826   -0.9394    0.0000 C   0  0  0  0  0  0  0  0  0  0  0  0
   22.4622   -0.5793    0.0000 C   0  0  0  0  0  0  0  0  0  0  0  0
   23.2053    0.0898    0.0000 C   0  0  0  0  0  0  0  0  0  0  0  0
    6.3395   -0.2703    0.0000 C   0  0  0  0  0  0  0  0  0  0  0  0
   24.1564   -0.2192    0.0000 C   0  0  0  0  0  0  0  0  0  0  0  0
    5.3884   -0.5793    0.0000 C   0  0  0  0  0  0  0  0  0  0  0  0
   24.8995    0.4500    0.0000 C   0  0  3  0  0  0  0  0  0  0  0  0
    4.6453    0.0898    0.0000 C   0  0  0  0  0  0  0  0  0  0  0  0
   25.8506    0.1409    0.0000 C   0  0  0  0  0  0  0  0  0  0  0  0
    3.6942   -0.2192    0.0000 C   0  0  0  0  0  0  0  0  0  0  0  0
   26.5937    0.8101    0.0000 C   0  0  0  0  0  0  0  0  0  0  0  0
    2.9511    0.4500    0.0000 C   0  0  0  0  0  0  0  0  0  0  0  0
   26.4892    1.8046    0.0000 C   0  0  0  0  0  0  0  0  0  0  0  0
   27.4027    2.2113    0.0000 C   0  0  3  0  0  0  0  0  0  0  0  0
   27.5719    0.6022    0.0000 C   0  0  0  0  0  0  0  0  0  0  0  0
    2.0000    0.1409    0.0000 C   0  0  0  0  0  0  0  0  0  0  0  0
   27.6106    3.1895    0.0000 C   0  0  0  0  0  0  0  0  0  0  0  0
   14.8673   -2.5503    0.0000 H   0  0  0  0  0  0  0  0  0  0  0  0
   12.9833   -2.5503    0.0000 H   0  0  0  0  0  0  0  0  0  0  0  0
   15.0317   -0.6308    0.0000 H   0  0  0  0  0  0  0  0  0  0  0  0
   14.3605   -0.1431    0.0000 H   0  0  0  0  0  0  0  0  0  0  0  0
   13.4901   -0.1431    0.0000 H   0  0  0  0  0  0  0  0  0  0  0  0
   12.8188   -0.6308    0.0000 H   0  0  0  0  0  0  0  0  0  0  0  0
   16.4938   -2.2824    0.0000 H   0  0  0  0  0  0  0  0  0  0  0  0
   11.3568   -2.2824    0.0000 H   0  0  0  0  0  0  0  0  0  0  0  0
   16.7196   -0.8032    0.0000 H   0  0  0  0  0  0  0  0  0  0  0  0
   15.9399   -0.9689    0.0000 H   0  0  0  0  0  0  0  0  0  0  0  0
   11.9106   -0.9689    0.0000 H   0  0  0  0  0  0  0  0  0  0  0  0
   11.1310   -0.8032    0.0000 H   0  0  0  0  0  0  0  0  0  0  0  0
   17.0885   -2.2070    0.0000 H   0  0  0  0  0  0  0  0  0  0  0  0
   17.8681   -2.0413    0.0000 H   0  0  0  0  0  0  0  0  0  0  0  0
    9.9824   -2.0413    0.0000 H   0  0  0  0  0  0  0  0  0  0  0  0
   10.7621   -2.2070    0.0000 H   0  0  0  0  0  0  0  0  0  0  0  0
   18.4138   -0.4431    0.0000 H   0  0  0  0  0  0  0  0  0  0  0  0
   17.6341   -0.6088    0.0000 H   0  0  0  0  0  0  0  0  0  0  0  0
   10.2164   -0.6088    0.0000 H   0  0  0  0  0  0  0  0  0  0  0  0
    9.4368   -0.4431    0.0000 H   0  0  0  0  0  0  0  0  0  0  0  0
   18.4421   -1.8683    0.0000 H   0  0  0  0  0  0  0  0  0  0  0  0
   16.4829   -3.1895    0.0000 H   0  0  0  0  0  0  0  0  0  0  0  0
   11.3676   -3.1895    0.0000 H   0  0  0  0  0  0  0  0  0  0  0  0
   19.0085   -0.3677    0.0000 H   0  0  0  0  0  0  0  0  0  0  0  0
    8.2882   -1.6812    0.0000 H   0  0  0  0  0  0  0  0  0  0  0  0
    9.0679   -1.8469    0.0000 H   0  0  0  0  0  0  0  0  0  0  0  0
   20.4769   -1.4868    0.0000 H   0  0  0  0  0  0  0  0  0  0  0  0
   21.2565   -1.3211    0.0000 H   0  0  0  0  0  0  0  0  0  0  0  0
    8.5222   -0.2487    0.0000 H   0  0  0  0  0  0  0  0  0  0  0  0
    7.7426   -0.0830    0.0000 H   0  0  0  0  0  0  0  0  0  0  0  0
   21.8022    0.2772    0.0000 H   0  0  0  0  0  0  0  0  0  0  0  0
   21.0225    0.1114    0.0000 H   0  0  0  0  0  0  0  0  0  0  0  0
    6.5940   -1.3211    0.0000 H   0  0  0  0  0  0  0  0  0  0  0  0
    7.3737   -1.4868    0.0000 H   0  0  0  0  0  0  0  0  0  0  0  0
   22.1711   -1.1267    0.0000 H   0  0  0  0  0  0  0  0  0  0  0  0
   22.9507   -0.9610    0.0000 H   0  0  0  0  0  0  0  0  0  0  0  0
   19.8713   -2.4692    0.0000 H   0  0  0  0  0  0  0  0  0  0  0  0
   23.4964    0.6373    0.0000 H   0  0  0  0  0  0  0  0  0  0  0  0
   22.7167    0.4716    0.0000 H   0  0  0  0  0  0  0  0  0  0  0  0
    6.8280    0.1114    0.0000 H   0  0  0  0  0  0  0  0  0  0  0  0
    6.0484    0.2772    0.0000 H   0  0  0  0  0  0  0  0  0  0  0  0
   20.0697    0.7626    0.0000 H   0  0  0  0  0  0  0  0  0  0  0  0
   23.8653   -0.7666    0.0000 H   0  0  0  0  0  0  0  0  0  0  0  0
   24.6449   -0.6009    0.0000 H   0  0  0  0  0  0  0  0  0  0  0  0
    4.8998   -0.9610    0.0000 H   0  0  0  0  0  0  0  0  0  0  0  0
    5.6795   -1.1267    0.0000 H   0  0  0  0  0  0  0  0  0  0  0  0
   25.5312    1.0187    0.0000 H   0  0  0  0  0  0  0  0  0  0  0  0
    5.1338    0.4716    0.0000 H   0  0  0  0  0  0  0  0  0  0  0  0
    4.3542    0.6373    0.0000 H   0  0  0  0  0  0  0  0  0  0  0  0
   25.5595   -0.4065    0.0000 H   0  0  0  0  0  0  0  0  0  0  0  0
   26.3391   -0.2408    0.0000 H   0  0  0  0  0  0  0  0  0  0  0  0
    3.2056   -0.6009    0.0000 H   0  0  0  0  0  0  0  0  0  0  0  0
    3.9853   -0.7666    0.0000 H   0  0  0  0  0  0  0  0  0  0  0  0
    3.4396    0.8317    0.0000 H   0  0  0  0  0  0  0  0  0  0  0  0
    2.6600    0.9974    0.0000 H   0  0  0  0  0  0  0  0  0  0  0  0
   24.1019    1.6197    0.0000 H   0  0  0  0  0  0  0  0  0  0  0  0
   25.9522    2.1146    0.0000 H   0  0  0  0  0  0  0  0  0  0  0  0
   28.2238    2.4313    0.0000 H   0  0  0  0  0  0  0  0  0  0  0  0
    1.8084    0.7306    0.0000 H   0  0  0  0  0  0  0  0  0  0  0  0
    1.4103   -0.0506    0.0000 H   0  0  0  0  0  0  0  0  0  0  0  0
    2.1916   -0.4487    0.0000 H   0  0  0  0  0  0  0  0  0  0  0  0
   28.2171    3.0606    0.0000 H   0  0  0  0  0  0  0  0  0  0  0  0
   27.7395    3.7959    0.0000 H   0  0  0  0  0  0  0  0  0  0  0  0
   27.0042    3.3184    0.0000 H   0  0  0  0  0  0  0  0  0  0  0  0
  1  9  1  0  0  0  0
  1 10  1  0  0  0  0
  2 13  1  0  0  0  0
  2 65  1  0  0  0  0
  3 14  1  0  0  0  0
  3 66  1  0  0  0  0
  4 21  1  0  0  0  0
  4 80  1  0  0  0  0
  5 22  1  0  0  0  0
  5 85  1  0  0  0  0
  6 33  1  0  0  0  0
  6 99  1  0  0  0  0
  7 40  1  0  0  0  0
  7 41  1  0  0  0  0
  8 41  2  0  0  0  0
  9 11  1  0  0  0  0
  9 13  1  0  0  0  0
  9 44  1  0  0  0  0
 10 12  1  0  0  0  0
 10 14  1  0  0  0  0
 10 45  1  0  0  0  0
 11 12  1  0  0  0  0
 11 46  1  0  0  0  0
 11 47  1  0  0  0  0
 12 48  1  0  0  0  0
 12 49  1  0  0  0  0
 13 15  1  0  0  0  0
 13 50  1  0  0  0  0
 14 16  1  0  0  0  0
 14 51  1  0  0  0  0
 15 17  1  0  0  0  0
 15 52  1  0  0  0  0
 15 53  1  0  0  0  0
 16 18  1  0  0  0  0
 16 54  1  0  0  0  0
 16 55  1  0  0  0  0
 17 19  1  0  0  0  0
 17 56  1  0  0  0  0
 17 57  1  0  0  0  0
 18 20  1  0  0  0  0
 18 58  1  0  0  0  0
 18 59  1  0  0  0  0
 19 21  1  0  0  0  0
 19 60  1  0  0  0  0
 19 61  1  0  0  0  0
 20 23  1  0  0  0  0
 20 62  1  0  0  0  0
 20 63  1  0  0  0  0
 21 22  1  0  0  0  0
 21 64  1  0  0  0  0
 22 24  1  0  0  0  0
 22 67  1  0  0  0  0
 23 25  1  0  0  0  0
 23 68  1  0  0  0  0
 23 69  1  0  0  0  0
 24 26  1  0  0  0  0
 24 70  1  0  0  0  0
 24 71  1  0  0  0  0
 25 27  1  0  0  0  0
 25 72  1  0  0  0  0
 25 73  1  0  0  0  0
 26 28  1  0  0  0  0
 26 74  1  0  0  0  0
 26 75  1  0  0  0  0
 27 30  1  0  0  0  0
 27 76  1  0  0  0  0
 27 77  1  0  0  0  0
 28 29  1  0  0  0  0
 28 78  1  0  0  0  0
 28 79  1  0  0  0  0
 29 31  1  0  0  0  0
 29 81  1  0  0  0  0
 29 82  1  0  0  0  0
 30 32  1  0  0  0  0
 30 83  1  0  0  0  0
 30 84  1  0  0  0  0
 31 33  1  0  0  0  0
 31 86  1  0  0  0  0
 31 87  1  0  0  0  0
 32 34  1  0  0  0  0
 32 88  1  0  0  0  0
 32 89  1  0  0  0  0
 33 35  1  0  0  0  0
 33 90  1  0  0  0  0
 34 36  1  0  0  0  0
 34 91  1  0  0  0  0
 34 92  1  0  0  0  0
 35 37  1  0  0  0  0
 35 93  1  0  0  0  0
 35 94  1  0  0  0  0
 36 38  1  0  0  0  0
 36 95  1  0  0  0  0
 36 96  1  0  0  0  0
 37 39  2  0  0  0  0
 37 41  1  0  0  0  0
 38 42  1  0  0  0  0
 38 97  1  0  0  0  0
 38 98  1  0  0  0  0
 39 40  1  0  0  0  0
 39100  1  0  0  0  0
 40 43  1  0  0  0  0
 40101  1  0  0  0  0
 42102  1  0  0  0  0
 42103  1  0  0  0  0
 42104  1  0  0  0  0
 43105  1  0  0  0  0
 43106  1  0  0  0  0
 43107  1  0  0  0  0
M  END
> <PUBCHEM_COMPOUND_CID>
157682

> <PUBCHEM_COMPOUND_CANONICALIZED>
1

> <PUBCHEM_CACTVS_COMPLEXITY>
758

> <PUBCHEM_CACTVS_HBOND_ACCEPTOR>
8

> <PUBCHEM_CACTVS_HBOND_DONOR>
5

> <PUBCHEM_CACTVS_ROTATABLE_BOND>
26

> <PUBCHEM_CACTVS_SUBSKEYS>
AAADcfB8PAAAAAAAAAAAAAAAAAAAASIAAAAAAAAAAAAAAAAAAAAAGgAACAAADBSggAICCAAABgCIAiDSCAAAAAAgAAAACAEAAEgBFBIAIQACUAAEwAALIYPK6KSAAAAAAAAAAAAAAAAAAAAAAAAAAAAAAA==

> <PUBCHEM_IUPAC_OPENEYE_NAME>
2-methyl-4-[2,8,9,13-tetrahydroxy-13-[5-(1-hydroxytridecyl)tetrahydrofuran-2-yl]tridecyl]-2H-furan-5-one

> <PUBCHEM_IUPAC_CAS_NAME>
2-methyl-4-[2,8,9,13-tetrahydroxy-13-[5-(1-hydroxytridecyl)-2-oxolanyl]tridecyl]-2H-furan-5-one

> <PUBCHEM_IUPAC_NAME_MARKUP>
2-methyl-4-[2,8,9,13-tetrahydroxy-13-[5-(1-hydroxytridecyl)oxolan-2-yl]tridecyl]-2<I>H</I>-furan-5-one

> <PUBCHEM_IUPAC_NAME>
2-methyl-4-[2,8,9,13-tetrahydroxy-13-[5-(1-hydroxytridecyl)oxolan-2-yl]tridecyl]-2H-furan-5-one

> <PUBCHEM_IUPAC_SYSTEMATIC_NAME>
2-methyl-4-[2,8,9,13-tetrakis(oxidanyl)-13-[5-(1-oxidanyltridecyl)oxolan-2-yl]tridecyl]-2H-furan-5-one

> <PUBCHEM_IUPAC_TRADITIONAL_NAME>
2-methyl-4-[2,8,9,13-tetrahydroxy-13-[5-(1-hydroxytridecyl)tetrahydrofuran-2-yl]tridecyl]-2H-furan-5-one

> <PUBCHEM_IUPAC_INCHI>
InChI=1S/C35H64O8/c1-3-4-5-6-7-8-9-10-11-14-19-31(39)33-22-23-34(43-33)32(40)21-16-20-30(38)29(37)18-15-12-13-17-28(36)25-27-24-26(2)42-35(27)41/h24,26,28-34,36-40H,3-23,25H2,1-2H3

> <PUBCHEM_IUPAC_INCHIKEY>
LPDLLEWSLYZCOC-UHFFFAOYSA-N

> <PUBCHEM_XLOGP3_AA>
7.4

> <PUBCHEM_EXACT_MASS>
612.46011900

> <PUBCHEM_MOLECULAR_FORMULA>
C35H64O8

> <PUBCHEM_MOLECULAR_WEIGHT>
612.9

> <PUBCHEM_OPENEYE_CAN_SMILES>
CCCCCCCCCCCCC(C1CCC(O1)C(CCCC(C(CCCCCC(CC2=CC(OC2=O)C)O)O)O)O)O

> <PUBCHEM_OPENEYE_ISO_SMILES>
CCCCCCCCCCCCC(C1CCC(O1)C(CCCC(C(CCCCCC(CC2=CC(OC2=O)C)O)O)O)O)O

> <PUBCHEM_CACTVS_TPSA>
137

> <PUBCHEM_MONOISOTOPIC_WEIGHT>
612.46011900

> <PUBCHEM_TOTAL_CHARGE>
0

> <PUBCHEM_HEAVY_ATOM_COUNT>
43

> <PUBCHEM_ATOM_DEF_STEREO_COUNT>
0

> <PUBCHEM_ATOM_UDEF_STEREO_COUNT>
8

> <PUBCHEM_BOND_DEF_STEREO_COUNT>
0

> <PUBCHEM_BOND_UDEF_STEREO_COUNT>
0

> <PUBCHEM_ISOTOPIC_ATOM_COUNT>
0

> <PUBCHEM_COMPONENT_COUNT>
1

> <PUBCHEM_CACTVS_TAUTO_COUNT>
1

> <PUBCHEM_COORDINATE_TYPE>
1
5
255

> <PUBCHEM_BONDANNOTATIONS>
10  45  3
13  50  3
14  51  3
21  64  3
22  67  3
33  90  3
40  101  3
9  44  3

$$$$
