5319155
  -OEChem-01042211322D

107108  0     1  0  0  0  0  0999 V2000
   13.7527   -1.4959    0.0000 O   0  0  0  0  0  0  0  0  0  0  0  0
   15.7207   -2.1953    0.0000 O   0  0  0  0  0  0  0  0  0  0  0  0
   11.4574    0.4301    0.0000 O   0  0  0  0  0  0  0  0  0  0  0  0
   17.7422    0.7902    0.0000 O   0  0  0  0  0  0  0  0  0  0  0  0
   19.1091   -1.4751    0.0000 O   0  0  0  0  0  0  0  0  0  0  0  0
    6.3748    1.5104    0.0000 O   0  0  0  0  0  0  0  0  0  0  0  0
    3.6636    2.2937    0.0000 O   0  0  0  0  0  0  0  0  0  0  0  0
    5.4432    2.3869    0.0000 O   0  0  0  0  0  0  0  0  0  0  0  0
   14.5617   -0.9082    0.0000 C   0  0  1  0  0  0  0  0  0  0  0  0
   12.9437   -0.9082    0.0000 C   0  0  1  0  0  0  0  0  0  0  0  0
   14.2527    0.0429    0.0000 C   0  0  0  0  0  0  0  0  0  0  0  0
   13.2527    0.0429    0.0000 C   0  0  0  0  0  0  0  0  0  0  0  0
   15.5128   -1.2172    0.0000 C   0  0  2  0  0  0  0  0  0  0  0  0
   11.9926   -1.2172    0.0000 C   0  0  0  0  0  0  0  0  0  0  0  0
   16.2559   -0.5481    0.0000 C   0  0  0  0  0  0  0  0  0  0  0  0
   11.2495   -0.5481    0.0000 C   0  0  1  0  0  0  0  0  0  0  0  0
   17.2070   -0.8571    0.0000 C   0  0  0  0  0  0  0  0  0  0  0  0
   10.2984   -0.8571    0.0000 C   0  0  0  0  0  0  0  0  0  0  0  0
   17.9501   -0.1879    0.0000 C   0  0  2  0  0  0  0  0  0  0  0  0
    9.5553   -0.1879    0.0000 C   0  0  0  0  0  0  0  0  0  0  0  0
   18.9012   -0.4970    0.0000 C   0  0  1  0  0  0  0  0  0  0  0  0
   19.6443    0.1722    0.0000 C   0  0  0  0  0  0  0  0  0  0  0  0
    8.6042   -0.4970    0.0000 C   0  0  0  0  0  0  0  0  0  0  0  0
   20.5954   -0.1368    0.0000 C   0  0  0  0  0  0  0  0  0  0  0  0
    7.8611    0.1722    0.0000 C   0  0  0  0  0  0  0  0  0  0  0  0
   21.3385    0.5323    0.0000 C   0  0  0  0  0  0  0  0  0  0  0  0
    6.9100   -0.1368    0.0000 C   0  0  0  0  0  0  0  0  0  0  0  0
   22.2896    0.2233    0.0000 C   0  0  0  0  0  0  0  0  0  0  0  0
    6.1669    0.5323    0.0000 C   0  0  2  0  0  0  0  0  0  0  0  0
   23.0327    0.8924    0.0000 C   0  0  0  0  0  0  0  0  0  0  0  0
   23.9838    0.5834    0.0000 C   0  0  0  0  0  0  0  0  0  0  0  0
    5.2158    0.2233    0.0000 C   0  0  0  0  0  0  0  0  0  0  0  0
   24.7269    1.2525    0.0000 C   0  0  0  0  0  0  0  0  0  0  0  0
   25.6780    0.9435    0.0000 C   0  0  0  0  0  0  0  0  0  0  0  0
    4.4727    0.8924    0.0000 C   0  0  0  0  0  0  0  0  0  0  0  0
   26.4211    1.6126    0.0000 C   0  0  0  0  0  0  0  0  0  0  0  0
   27.3722    1.3036    0.0000 C   0  0  0  0  0  0  0  0  0  0  0  0
    3.4945    0.6845    0.0000 C   0  0  0  0  0  0  0  0  0  0  0  0
    2.9945    1.5505    0.0000 C   0  0  2  0  0  0  0  0  0  0  0  0
    4.5772    1.8869    0.0000 C   0  0  0  0  0  0  0  0  0  0  0  0
   28.1153    1.9727    0.0000 C   0  0  0  0  0  0  0  0  0  0  0  0
    2.0000    1.6550    0.0000 C   0  0  0  0  0  0  0  0  0  0  0  0
   29.0664    1.6637    0.0000 C   0  0  0  0  0  0  0  0  0  0  0  0
   14.6947   -1.7477    0.0000 H   0  0  0  0  0  0  0  0  0  0  0  0
   12.8467   -1.5205    0.0000 H   0  0  0  0  0  0  0  0  0  0  0  0
   14.8591    0.1718    0.0000 H   0  0  0  0  0  0  0  0  0  0  0  0
   14.1879    0.6595    0.0000 H   0  0  0  0  0  0  0  0  0  0  0  0
   13.3175    0.6595    0.0000 H   0  0  0  0  0  0  0  0  0  0  0  0
   12.6462    0.1718    0.0000 H   0  0  0  0  0  0  0  0  0  0  0  0
   16.1024   -1.4088    0.0000 H   0  0  0  0  0  0  0  0  0  0  0  0
   11.5041   -1.5989    0.0000 H   0  0  0  0  0  0  0  0  0  0  0  0
   12.2837   -1.7646    0.0000 H   0  0  0  0  0  0  0  0  0  0  0  0
   16.5470   -0.0006    0.0000 H   0  0  0  0  0  0  0  0  0  0  0  0
   15.7673   -0.1663    0.0000 H   0  0  0  0  0  0  0  0  0  0  0  0
   10.7887   -0.1332    0.0000 H   0  0  0  0  0  0  0  0  0  0  0  0
   16.9159   -1.4045    0.0000 H   0  0  0  0  0  0  0  0  0  0  0  0
   17.6955   -1.2388    0.0000 H   0  0  0  0  0  0  0  0  0  0  0  0
    9.8099   -1.2388    0.0000 H   0  0  0  0  0  0  0  0  0  0  0  0
   10.5895   -1.4045    0.0000 H   0  0  0  0  0  0  0  0  0  0  0  0
   18.4109    0.2269    0.0000 H   0  0  0  0  0  0  0  0  0  0  0  0
   10.0438    0.1938    0.0000 H   0  0  0  0  0  0  0  0  0  0  0  0
    9.2642    0.3595    0.0000 H   0  0  0  0  0  0  0  0  0  0  0  0
   18.4404   -0.9118    0.0000 H   0  0  0  0  0  0  0  0  0  0  0  0
   16.3103   -2.3869    0.0000 H   0  0  0  0  0  0  0  0  0  0  0  0
   19.9354    0.7196    0.0000 H   0  0  0  0  0  0  0  0  0  0  0  0
   19.1557    0.5539    0.0000 H   0  0  0  0  0  0  0  0  0  0  0  0
    8.1156   -0.8787    0.0000 H   0  0  0  0  0  0  0  0  0  0  0  0
    8.8953   -1.0444    0.0000 H   0  0  0  0  0  0  0  0  0  0  0  0
   10.9966    0.8450    0.0000 H   0  0  0  0  0  0  0  0  0  0  0  0
   20.3043   -0.6843    0.0000 H   0  0  0  0  0  0  0  0  0  0  0  0
   21.0839   -0.5186    0.0000 H   0  0  0  0  0  0  0  0  0  0  0  0
    8.3496    0.5539    0.0000 H   0  0  0  0  0  0  0  0  0  0  0  0
    7.5700    0.7196    0.0000 H   0  0  0  0  0  0  0  0  0  0  0  0
   21.6296    1.0797    0.0000 H   0  0  0  0  0  0  0  0  0  0  0  0
   20.8499    0.9140    0.0000 H   0  0  0  0  0  0  0  0  0  0  0  0
   18.2030    1.2051    0.0000 H   0  0  0  0  0  0  0  0  0  0  0  0
    6.4214   -0.5186    0.0000 H   0  0  0  0  0  0  0  0  0  0  0  0
    7.2011   -0.6843    0.0000 H   0  0  0  0  0  0  0  0  0  0  0  0
   21.9985   -0.3242    0.0000 H   0  0  0  0  0  0  0  0  0  0  0  0
   22.7781   -0.1584    0.0000 H   0  0  0  0  0  0  0  0  0  0  0  0
   19.6987   -1.6667    0.0000 H   0  0  0  0  0  0  0  0  0  0  0  0
    6.7565    0.7239    0.0000 H   0  0  0  0  0  0  0  0  0  0  0  0
   23.3238    1.4398    0.0000 H   0  0  0  0  0  0  0  0  0  0  0  0
   22.5441    1.2741    0.0000 H   0  0  0  0  0  0  0  0  0  0  0  0
   23.6927    0.0360    0.0000 H   0  0  0  0  0  0  0  0  0  0  0  0
   24.4723    0.2017    0.0000 H   0  0  0  0  0  0  0  0  0  0  0  0
    4.7272   -0.1584    0.0000 H   0  0  0  0  0  0  0  0  0  0  0  0
    5.5069   -0.3242    0.0000 H   0  0  0  0  0  0  0  0  0  0  0  0
   25.0180    1.7999    0.0000 H   0  0  0  0  0  0  0  0  0  0  0  0
   24.2384    1.6342    0.0000 H   0  0  0  0  0  0  0  0  0  0  0  0
   25.3869    0.3961    0.0000 H   0  0  0  0  0  0  0  0  0  0  0  0
   26.1665    0.5618    0.0000 H   0  0  0  0  0  0  0  0  0  0  0  0
   26.7122    2.1601    0.0000 H   0  0  0  0  0  0  0  0  0  0  0  0
   25.9326    1.9943    0.0000 H   0  0  0  0  0  0  0  0  0  0  0  0
    6.9644    1.7020    0.0000 H   0  0  0  0  0  0  0  0  0  0  0  0
   27.0811    0.7562    0.0000 H   0  0  0  0  0  0  0  0  0  0  0  0
   27.8607    0.9219    0.0000 H   0  0  0  0  0  0  0  0  0  0  0  0
    3.2424    0.1181    0.0000 H   0  0  0  0  0  0  0  0  0  0  0  0
    2.7723    2.1293    0.0000 H   0  0  0  0  0  0  0  0  0  0  0  0
   28.4064    2.5202    0.0000 H   0  0  0  0  0  0  0  0  0  0  0  0
   27.6268    2.3544    0.0000 H   0  0  0  0  0  0  0  0  0  0  0  0
    2.0648    2.2716    0.0000 H   0  0  0  0  0  0  0  0  0  0  0  0
    1.3834    1.7198    0.0000 H   0  0  0  0  0  0  0  0  0  0  0  0
    1.9352    1.0384    0.0000 H   0  0  0  0  0  0  0  0  0  0  0  0
   28.8748    1.0741    0.0000 H   0  0  0  0  0  0  0  0  0  0  0  0
   29.6560    1.4721    0.0000 H   0  0  0  0  0  0  0  0  0  0  0  0
   29.2580    2.2534    0.0000 H   0  0  0  0  0  0  0  0  0  0  0  0
  1  9  1  0  0  0  0
  1 10  1  0  0  0  0
 13  2  1  6  0  0  0
  2 64  1  0  0  0  0
 16  3  1  1  0  0  0
  3 69  1  0  0  0  0
 19  4  1  1  0  0  0
  4 76  1  0  0  0  0
 21  5  1  1  0  0  0
  5 81  1  0  0  0  0
 29  6  1  6  0  0  0
  6 95  1  0  0  0  0
  7 39  1  0  0  0  0
  7 40  1  0  0  0  0
  8 40  2  0  0  0  0
  9 11  1  0  0  0  0
  9 13  1  0  0  0  0
  9 44  1  6  0  0  0
 10 12  1  0  0  0  0
 10 14  1  6  0  0  0
 10 45  1  0  0  0  0
 11 12  1  0  0  0  0
 11 46  1  0  0  0  0
 11 47  1  0  0  0  0
 12 48  1  0  0  0  0
 12 49  1  0  0  0  0
 13 15  1  0  0  0  0
 13 50  1  0  0  0  0
 14 16  1  0  0  0  0
 14 51  1  0  0  0  0
 14 52  1  0  0  0  0
 15 17  1  0  0  0  0
 15 53  1  0  0  0  0
 15 54  1  0  0  0  0
 16 18  1  0  0  0  0
 16 55  1  0  0  0  0
 17 19  1  0  0  0  0
 17 56  1  0  0  0  0
 17 57  1  0  0  0  0
 18 20  1  0  0  0  0
 18 58  1  0  0  0  0
 18 59  1  0  0  0  0
 19 21  1  0  0  0  0
 19 60  1  0  0  0  0
 20 23  1  0  0  0  0
 20 61  1  0  0  0  0
 20 62  1  0  0  0  0
 21 22  1  0  0  0  0
 21 63  1  0  0  0  0
 22 24  1  0  0  0  0
 22 65  1  0  0  0  0
 22 66  1  0  0  0  0
 23 25  1  0  0  0  0
 23 67  1  0  0  0  0
 23 68  1  0  0  0  0
 24 26  1  0  0  0  0
 24 70  1  0  0  0  0
 24 71  1  0  0  0  0
 25 27  1  0  0  0  0
 25 72  1  0  0  0  0
 25 73  1  0  0  0  0
 26 28  1  0  0  0  0
 26 74  1  0  0  0  0
 26 75  1  0  0  0  0
 27 29  1  0  0  0  0
 27 77  1  0  0  0  0
 27 78  1  0  0  0  0
 28 30  1  0  0  0  0
 28 79  1  0  0  0  0
 28 80  1  0  0  0  0
 29 32  1  0  0  0  0
 29 82  1  0  0  0  0
 30 31  1  0  0  0  0
 30 83  1  0  0  0  0
 30 84  1  0  0  0  0
 31 33  1  0  0  0  0
 31 85  1  0  0  0  0
 31 86  1  0  0  0  0
 32 35  1  0  0  0  0
 32 87  1  0  0  0  0
 32 88  1  0  0  0  0
 33 34  1  0  0  0  0
 33 89  1  0  0  0  0
 33 90  1  0  0  0  0
 34 36  1  0  0  0  0
 34 91  1  0  0  0  0
 34 92  1  0  0  0  0
 35 38  2  0  0  0  0
 35 40  1  0  0  0  0
 36 37  1  0  0  0  0
 36 93  1  0  0  0  0
 36 94  1  0  0  0  0
 37 41  1  0  0  0  0
 37 96  1  0  0  0  0
 37 97  1  0  0  0  0
 38 39  1  0  0  0  0
 38 98  1  0  0  0  0
 39 42  1  6  0  0  0
 39 99  1  0  0  0  0
 41 43  1  0  0  0  0
 41100  1  0  0  0  0
 41101  1  0  0  0  0
 42102  1  0  0  0  0
 42103  1  0  0  0  0
 42104  1  0  0  0  0
 43105  1  0  0  0  0
 43106  1  0  0  0  0
 43107  1  0  0  0  0
M  END
> <PUBCHEM_COMPOUND_CID>
5319155

> <PUBCHEM_COMPOUND_CANONICALIZED>
1

> <PUBCHEM_CACTVS_COMPLEXITY>
758

> <PUBCHEM_CACTVS_HBOND_ACCEPTOR>
8

> <PUBCHEM_CACTVS_HBOND_DONOR>
5

> <PUBCHEM_CACTVS_ROTATABLE_BOND>
26

> <PUBCHEM_CACTVS_SUBSKEYS>
AAADcfB8PAAAAAAAAAAAAAAAAAAAASIAAAAAAAAAAAAAAAAAAAAAGgAACAAADBSggAICCAAABgCIAiDSCAAAAAAgAAAACAEAAEgBFBIAIQACUAAFwAALIYPK6KyAAAAAAAAAAAAAAAAAAAAAAAAAAAAAAA==

> <PUBCHEM_IUPAC_OPENEYE_NAME>
(2S)-4-[(2R,8R)-2,8-dihydroxy-9-[(2S,5S)-5-[(1S,4R,5R)-1,4,5-trihydroxyheptadecyl]tetrahydrofuran-2-yl]nonyl]-2-methyl-2H-furan-5-one

> <PUBCHEM_IUPAC_CAS_NAME>
(2S)-4-[(2R,8R)-2,8-dihydroxy-9-[(2S,5S)-5-[(1S,4R,5R)-1,4,5-trihydroxyheptadecyl]-2-oxolanyl]nonyl]-2-methyl-2H-furan-5-one

> <PUBCHEM_IUPAC_NAME_MARKUP>
(2<I>S</I>)-4-[(2<I>R</I>,8<I>R</I>)-2,8-dihydroxy-9-[(2<I>S</I>,5<I>S</I>)-5-[(1<I>S</I>,4<I>R</I>,5<I>R</I>)-1,4,5-trihydroxyheptadecyl]oxolan-2-yl]nonyl]-2-methyl-2<I>H</I>-furan-5-one

> <PUBCHEM_IUPAC_NAME>
(2S)-4-[(2R,8R)-2,8-dihydroxy-9-[(2S,5S)-5-[(1S,4R,5R)-1,4,5-trihydroxyheptadecyl]oxolan-2-yl]nonyl]-2-methyl-2H-furan-5-one

> <PUBCHEM_IUPAC_SYSTEMATIC_NAME>
(2S)-4-[(2R,8R)-2,8-bis(oxidanyl)-9-[(2S,5S)-5-[(1S,4R,5R)-1,4,5-tris(oxidanyl)heptadecyl]oxolan-2-yl]nonyl]-2-methyl-2H-furan-5-one

> <PUBCHEM_IUPAC_TRADITIONAL_NAME>
(2S)-4-[(2R,8R)-2,8-dihydroxy-9-[(2S,5S)-5-[(1S,4R,5R)-1,4,5-trihydroxyheptadecyl]tetrahydrofuran-2-yl]nonyl]-2-methyl-2H-furan-5-one

> <PUBCHEM_IUPAC_INCHI>
InChI=1S/C35H64O8/c1-3-4-5-6-7-8-9-10-11-15-18-31(38)32(39)20-21-33(40)34-22-19-30(43-34)25-29(37)17-14-12-13-16-28(36)24-27-23-26(2)42-35(27)41/h23,26,28-34,36-40H,3-22,24-25H2,1-2H3/t26-,28+,29+,30-,31+,32+,33-,34-/m0/s1

> <PUBCHEM_IUPAC_INCHIKEY>
ZPRYGZNEAVBQEP-DWFITEHMSA-N

> <PUBCHEM_XLOGP3_AA>
7.4

> <PUBCHEM_EXACT_MASS>
612.46011900

> <PUBCHEM_MOLECULAR_FORMULA>
C35H64O8

> <PUBCHEM_MOLECULAR_WEIGHT>
612.9

> <PUBCHEM_OPENEYE_CAN_SMILES>
CCCCCCCCCCCCC(C(CCC(C1CCC(O1)CC(CCCCCC(CC2=CC(OC2=O)C)O)O)O)O)O

> <PUBCHEM_OPENEYE_ISO_SMILES>
CCCCCCCCCCCC[C@H]([C@@H](CC[C@@H]([C@@H]1CC[C@H](O1)C[C@@H](CCCCC[C@H](CC2=C[C@@H](OC2=O)C)O)O)O)O)O

> <PUBCHEM_CACTVS_TPSA>
137

> <PUBCHEM_MONOISOTOPIC_WEIGHT>
612.46011900

> <PUBCHEM_TOTAL_CHARGE>
0

> <PUBCHEM_HEAVY_ATOM_COUNT>
43

> <PUBCHEM_ATOM_DEF_STEREO_COUNT>
8

> <PUBCHEM_ATOM_UDEF_STEREO_COUNT>
0

> <PUBCHEM_BOND_DEF_STEREO_COUNT>
0

> <PUBCHEM_BOND_UDEF_STEREO_COUNT>
0

> <PUBCHEM_ISOTOPIC_ATOM_COUNT>
0

> <PUBCHEM_COMPONENT_COUNT>
1

> <PUBCHEM_CACTVS_TAUTO_COUNT>
-1

> <PUBCHEM_COORDINATE_TYPE>
1
5
255

> <PUBCHEM_BONDANNOTATIONS>
10  14  6
13  2  6
16  3  5
39  42  6
19  4  5
21  5  5
29  6  6
9  44  6

$$$$
