44144284
  -OEChem-01292204322D

106111  0     1  0  0  0  0  0999 V2000
    9.5424    4.0576    0.0000 O   0  0  0  0  0  0  0  0  0  0  0  0
    6.8671   -3.6946    0.0000 O   0  0  0  0  0  0  0  0  0  0  0  0
    8.1184    6.0996    0.0000 O   0  0  0  0  0  0  0  0  0  0  0  0
    6.8270    6.6988    0.0000 O   0  0  0  0  0  0  0  0  0  0  0  0
    9.2663    5.3583    0.0000 O   0  0  0  0  0  0  0  0  0  0  0  0
    9.3112   -3.0029    0.0000 O   0  0  0  0  0  0  0  0  0  0  0  0
    5.1350   -3.6946    0.0000 O   0  0  0  0  0  0  0  0  0  0  0  0
    6.8671   -5.6946    0.0000 O   0  0  0  0  0  0  0  0  0  0  0  0
    5.1350   -6.6946    0.0000 O   0  0  0  0  0  0  0  0  0  0  0  0
    3.4030   -5.6946    0.0000 O   0  0  0  0  0  0  0  0  0  0  0  0
    2.5369   -4.1946    0.0000 O   0  0  0  0  0  0  0  0  0  0  0  0
    3.4030   -2.6946    0.0000 O   0  0  0  0  0  0  0  0  0  0  0  0
    7.7681    1.0056    0.0000 C   0  0  2  0  0  0  0  0  0  0  0  0
    6.9040    0.5023    0.0000 C   0  0  3  0  0  0  0  0  0  0  0  0
    6.8920   -0.5393    0.0000 C   0  0  2  0  0  0  0  0  0  0  0  0
    7.7643    2.0056    0.0000 C   0  0  1  0  0  0  0  0  0  0  0  0
    7.7920   -1.0636    0.0000 C   0  0  3  0  0  0  0  0  0  0  0  0
    8.6801    0.5023    0.0000 C   0  0  0  0  0  0  0  0  0  0  0  0
    6.8963    2.5023    0.0000 C   0  0  0  0  0  0  0  0  0  0  0  0
    6.8762    3.5437    0.0000 C   0  0  1  0  0  0  0  0  0  0  0  0
    7.7722    4.0749    0.0000 C   0  0  1  0  0  0  0  0  0  0  0  0
    8.6921   -0.5393    0.0000 C   0  0  0  0  0  0  0  0  0  0  0  0
    7.8046   -2.1485    0.0000 C   0  0  1  0  0  0  0  0  0  0  0  0
    8.6723    2.5160    0.0000 C   0  0  0  0  0  0  0  0  0  0  0  0
    6.0361    0.9989    0.0000 C   0  0  0  0  0  0  0  0  0  0  0  0
    5.9421   -1.0636    0.0000 C   0  0  0  0  0  0  0  0  0  0  0  0
    8.6763    3.5576    0.0000 C   0  0  2  0  0  0  0  0  0  0  0  0
    8.7522    1.1831    0.0000 C   0  0  0  0  0  0  0  0  0  0  0  0
    6.8671   -2.6946    0.0000 C   0  0  2  0  0  0  0  0  0  0  0  0
    6.0322    1.9989    0.0000 C   0  0  0  0  0  0  0  0  0  0  0  0
    6.0279   -0.0359    0.0000 C   0  0  0  0  0  0  0  0  0  0  0  0
    5.9295   -2.1485    0.0000 C   0  0  0  0  0  0  0  0  0  0  0  0
    8.7497    1.8358    0.0000 C   0  0  0  0  0  0  0  0  0  0  0  0
    5.9223    4.0607    0.0000 C   0  0  0  0  0  0  0  0  0  0  0  0
    7.7764    5.1599    0.0000 C   0  0  2  0  0  0  0  0  0  0  0  0
    5.9014    5.1454    0.0000 C   0  0  0  0  0  0  0  0  0  0  0  0
    6.8347    5.6988    0.0000 C   0  0  1  0  0  0  0  0  0  0  0  0
    8.6324    4.5849    0.0000 C   0  0  0  0  0  0  0  0  0  0  0  0
    8.8046   -2.1408    0.0000 C   0  0  0  0  0  0  0  0  0  0  0  0
    8.3113   -3.0106    0.0000 C   0  0  0  0  0  0  0  0  0  0  0  0
    5.3881    6.0037    0.0000 C   0  0  0  0  0  0  0  0  0  0  0  0
    4.9015    5.1300    0.0000 C   0  0  0  0  0  0  0  0  0  0  0  0
    6.0010   -4.1946    0.0000 C   0  0  2  0  0  0  0  0  0  0  0  0
    6.0010   -5.1946    0.0000 C   0  0  1  0  0  0  0  0  0  0  0  0
    5.1350   -5.6946    0.0000 C   0  0  2  0  0  0  0  0  0  0  0  0
    4.2690   -4.1946    0.0000 C   0  0  1  0  0  0  0  0  0  0  0  0
    4.2690   -5.1946    0.0000 C   0  0  1  0  0  0  0  0  0  0  0  0
    3.4030   -3.6946    0.0000 C   0  0  0  0  0  0  0  0  0  0  0  0
    7.4398    0.1902    0.0000 H   0  0  0  0  0  0  0  0  0  0  0  0
    8.3314   -1.3694    0.0000 H   0  0  0  0  0  0  0  0  0  0  0  0
    9.2921    0.4033    0.0000 H   0  0  0  0  0  0  0  0  0  0  0  0
    8.8824    1.0884    0.0000 H   0  0  0  0  0  0  0  0  0  0  0  0
    6.1502    3.1018    0.0000 H   0  0  0  0  0  0  0  0  0  0  0  0
    8.9079   -1.1205    0.0000 H   0  0  0  0  0  0  0  0  0  0  0  0
    9.3017   -0.4261    0.0000 H   0  0  0  0  0  0  0  0  0  0  0  0
    8.8791    1.9315    0.0000 H   0  0  0  0  0  0  0  0  0  0  0  0
    9.2836    2.6197    0.0000 H   0  0  0  0  0  0  0  0  0  0  0  0
    5.4251    1.1042    0.0000 H   0  0  0  0  0  0  0  0  0  0  0  0
    5.8263    0.4155    0.0000 H   0  0  0  0  0  0  0  0  0  0  0  0
    5.7398   -0.4775    0.0000 H   0  0  0  0  0  0  0  0  0  0  0  0
    5.3300   -1.1626    0.0000 H   0  0  0  0  0  0  0  0  0  0  0  0
    9.2127    3.2466    0.0000 H   0  0  0  0  0  0  0  0  0  0  0  0
    8.8623    0.5729    0.0000 H   0  0  0  0  0  0  0  0  0  0  0  0
    9.3624    1.2931    0.0000 H   0  0  0  0  0  0  0  0  0  0  0  0
    8.6422    1.7932    0.0000 H   0  0  0  0  0  0  0  0  0  0  0  0
    7.4046   -3.0036    0.0000 H   0  0  0  0  0  0  0  0  0  0  0  0
    5.4941    2.3069    0.0000 H   0  0  0  0  0  0  0  0  0  0  0  0
    6.3400    0.4998    0.0000 H   0  0  0  0  0  0  0  0  0  0  0  0
    5.4922    0.2761    0.0000 H   0  0  0  0  0  0  0  0  0  0  0  0
    5.7158   -0.5717    0.0000 H   0  0  0  0  0  0  0  0  0  0  0  0
    5.3199   -2.0353    0.0000 H   0  0  0  0  0  0  0  0  0  0  0  0
    5.7137   -2.7297    0.0000 H   0  0  0  0  0  0  0  0  0  0  0  0
    8.6444    1.2248    0.0000 H   0  0  0  0  0  0  0  0  0  0  0  0
    9.3607    1.7304    0.0000 H   0  0  0  0  0  0  0  0  0  0  0  0
    8.8550    2.4468    0.0000 H   0  0  0  0  0  0  0  0  0  0  0  0
    5.3095    4.1550    0.0000 H   0  0  0  0  0  0  0  0  0  0  0  0
    5.7246    3.4730    0.0000 H   0  0  0  0  0  0  0  0  0  0  0  0
    8.3868    5.0511    0.0000 H   0  0  0  0  0  0  0  0  0  0  0  0
    7.3698    6.0119    0.0000 H   0  0  0  0  0  0  0  0  0  0  0  0
    8.7115    3.9700    0.0000 H   0  0  0  0  0  0  0  0  0  0  0  0
    8.2284    5.0552    0.0000 H   0  0  0  0  0  0  0  0  0  0  0  0
    9.3855   -1.9242    0.0000 H   0  0  0  0  0  0  0  0  0  0  0  0
    8.6922   -1.5310    0.0000 H   0  0  0  0  0  0  0  0  0  0  0  0
    7.7767   -3.3248    0.0000 H   0  0  0  0  0  0  0  0  0  0  0  0
    8.6254   -3.5452    0.0000 H   0  0  0  0  0  0  0  0  0  0  0  0
    8.8458   -2.6965    0.0000 H   0  0  0  0  0  0  0  0  0  0  0  0
   10.0793    3.7476    0.0000 H   0  0  0  0  0  0  0  0  0  0  0  0
    5.9202    6.3219    0.0000 H   0  0  0  0  0  0  0  0  0  0  0  0
    5.0699    6.5358    0.0000 H   0  0  0  0  0  0  0  0  0  0  0  0
    4.8560    5.6854    0.0000 H   0  0  0  0  0  0  0  0  0  0  0  0
    4.8920    5.7500    0.0000 H   0  0  0  0  0  0  0  0  0  0  0  0
    4.2816    5.1205    0.0000 H   0  0  0  0  0  0  0  0  0  0  0  0
    4.9111    4.5101    0.0000 H   0  0  0  0  0  0  0  0  0  0  0  0
    7.7199    6.5746    0.0000 H   0  0  0  0  0  0  0  0  0  0  0  0
    6.2877    7.0046    0.0000 H   0  0  0  0  0  0  0  0  0  0  0  0
    9.8781    5.2577    0.0000 H   0  0  0  0  0  0  0  0  0  0  0  0
    6.0010   -3.5746    0.0000 H   0  0  0  0  0  0  0  0  0  0  0  0
    9.9312   -2.9981    0.0000 H   0  0  0  0  0  0  0  0  0  0  0  0
    6.0010   -5.8146    0.0000 H   0  0  0  0  0  0  0  0  0  0  0  0
    4.5981   -6.0046    0.0000 H   0  0  0  0  0  0  0  0  0  0  0  0
    4.2690   -3.5746    0.0000 H   0  0  0  0  0  0  0  0  0  0  0  0
    3.7320   -4.8846    0.0000 H   0  0  0  0  0  0  0  0  0  0  0  0
    7.4040   -5.3846    0.0000 H   0  0  0  0  0  0  0  0  0  0  0  0
    5.6720   -7.0046    0.0000 H   0  0  0  0  0  0  0  0  0  0  0  0
    3.4030   -6.3146    0.0000 H   0  0  0  0  0  0  0  0  0  0  0  0
    2.0000   -3.8846    0.0000 H   0  0  0  0  0  0  0  0  0  0  0  0
 27  1  1  1  0  0  0
  1 87  1  0  0  0  0
 29  2  1  1  0  0  0
 43  2  1  1  0  0  0
 35  3  1  6  0  0  0
  3 94  1  0  0  0  0
 37  4  1  1  0  0  0
  4 95  1  0  0  0  0
  5 38  1  0  0  0  0
  5 96  1  0  0  0  0
  6 39  1  0  0  0  0
  6 98  1  0  0  0  0
  7 43  1  0  0  0  0
  7 46  1  0  0  0  0
 44  8  1  6  0  0  0
  8103  1  0  0  0  0
 45  9  1  1  0  0  0
  9104  1  0  0  0  0
 47 10  1  6  0  0  0
 10105  1  0  0  0  0
 11 48  1  0  0  0  0
 11106  1  0  0  0  0
 12 48  2  0  0  0  0
 13 14  1  0  0  0  0
 13 16  1  0  0  0  0
 13 18  1  0  0  0  0
 13 28  1  1  0  0  0
 14 15  1  0  0  0  0
 14 25  1  0  0  0  0
 14 49  1  0  0  0  0
 15 17  1  0  0  0  0
 15 26  1  0  0  0  0
 15 31  1  1  0  0  0
 16 19  1  0  0  0  0
 16 24  1  0  0  0  0
 16 33  1  6  0  0  0
 17 22  1  0  0  0  0
 17 23  1  0  0  0  0
 17 50  1  0  0  0  0
 18 22  1  0  0  0  0
 18 51  1  0  0  0  0
 18 52  1  0  0  0  0
 19 20  1  0  0  0  0
 19 30  2  0  0  0  0
 20 21  1  0  0  0  0
 20 34  1  0  0  0  0
 20 53  1  1  0  0  0
 21 27  1  0  0  0  0
 21 35  1  0  0  0  0
 21 38  1  1  0  0  0
 22 54  1  0  0  0  0
 22 55  1  0  0  0  0
 23 29  1  0  0  0  0
 23 39  1  0  0  0  0
 23 40  1  1  0  0  0
 24 27  1  0  0  0  0
 24 56  1  0  0  0  0
 24 57  1  0  0  0  0
 25 30  1  0  0  0  0
 25 58  1  0  0  0  0
 25 59  1  0  0  0  0
 26 32  1  0  0  0  0
 26 60  1  0  0  0  0
 26 61  1  0  0  0  0
 27 62  1  0  0  0  0
 28 63  1  0  0  0  0
 28 64  1  0  0  0  0
 28 65  1  0  0  0  0
 29 32  1  0  0  0  0
 29 66  1  0  0  0  0
 30 67  1  0  0  0  0
 31 68  1  0  0  0  0
 31 69  1  0  0  0  0
 31 70  1  0  0  0  0
 32 71  1  0  0  0  0
 32 72  1  0  0  0  0
 33 73  1  0  0  0  0
 33 74  1  0  0  0  0
 33 75  1  0  0  0  0
 34 36  1  0  0  0  0
 34 76  1  0  0  0  0
 34 77  1  0  0  0  0
 35 37  1  0  0  0  0
 35 78  1  0  0  0  0
 36 37  1  0  0  0  0
 36 41  1  0  0  0  0
 36 42  1  0  0  0  0
 37 79  1  0  0  0  0
 38 80  1  0  0  0  0
 38 81  1  0  0  0  0
 39 82  1  0  0  0  0
 39 83  1  0  0  0  0
 40 84  1  0  0  0  0
 40 85  1  0  0  0  0
 40 86  1  0  0  0  0
 41 88  1  0  0  0  0
 41 89  1  0  0  0  0
 41 90  1  0  0  0  0
 42 91  1  0  0  0  0
 42 92  1  0  0  0  0
 42 93  1  0  0  0  0
 43 44  1  0  0  0  0
 43 97  1  0  0  0  0
 44 45  1  0  0  0  0
 44 99  1  0  0  0  0
 45 47  1  0  0  0  0
 45100  1  0  0  0  0
 46 47  1  0  0  0  0
 46 48  1  1  0  0  0
 46101  1  0  0  0  0
 47102  1  0  0  0  0
M  END
> <PUBCHEM_COMPOUND_CID>
44144284

> <PUBCHEM_COMPOUND_CANONICALIZED>
1

> <PUBCHEM_CACTVS_COMPLEXITY>
1310

> <PUBCHEM_CACTVS_HBOND_ACCEPTOR>
12

> <PUBCHEM_CACTVS_HBOND_DONOR>
9

> <PUBCHEM_CACTVS_ROTATABLE_BOND>
5

> <PUBCHEM_CACTVS_SUBSKEYS>
AAADcfB8PAAAAAAAAAAAAAAAAAAAAAAAAAA0YMGCAAAAAADAAAAAGgAACAAADxSwgAMCCAAABgCIAiDSCAIAAAAgAAAACAFAAAgREBYAAQQiQAAFoAAPAAPK7PxPgAAAAAAAAADAAAYAADCAAAAAAAAAAA==

> <PUBCHEM_IUPAC_OPENEYE_NAME>
(2S,3S,4S,5R,6R)-6-[[(3S,4R,6aR,6bS,8S,8aR,9R,10R,12aS,14bR)-8,9,10-trihydroxy-4,8a-bis(hydroxymethyl)-4,6a,6b,11,11,14b-hexamethyl-1,2,3,4a,5,6,7,8,9,10,12,12a,14,14a-tetradecahydropicen-3-yl]oxy]-3,4,5-trihydroxy-tetrahydropyran-2-carboxylic acid

> <PUBCHEM_IUPAC_CAS_NAME>
(2S,3S,4S,5R,6R)-6-[[(3S,4R,6aR,6bS,8S,8aR,9R,10R,12aS,14bR)-8,9,10-trihydroxy-4,8a-bis(hydroxymethyl)-4,6a,6b,11,11,14b-hexamethyl-1,2,3,4a,5,6,7,8,9,10,12,12a,14,14a-tetradecahydropicen-3-yl]oxy]-3,4,5-trihydroxy-2-oxanecarboxylic acid

> <PUBCHEM_IUPAC_NAME_MARKUP>
(2<I>S</I>,3<I>S</I>,4<I>S</I>,5<I>R</I>,6<I>R</I>)-6-[[(3<I>S</I>,4<I>R</I>,6<I>a</I><I>R</I>,6<I>b</I><I>S</I>,8<I>S</I>,8<I>a</I><I>R</I>,9<I>R</I>,10<I>R</I>,12<I>a</I><I>S</I>,14<I>b</I><I>R</I>)-8,9,10-trihydroxy-4,8<I>a</I>-bis(hydroxymethyl)-4,6<I>a</I>,6<I>b</I>,11,11,14<I>b</I>-hexamethyl-1,2,3,4<I>a</I>,5,6,7,8,9,10,12,12<I>a</I>,14,14<I>a</I>-tetradecahydropicen-3-yl]oxy]-3,4,5-trihydroxyoxane-2-carboxylic acid

> <PUBCHEM_IUPAC_NAME>
(2S,3S,4S,5R,6R)-6-[[(3S,4R,6aR,6bS,8S,8aR,9R,10R,12aS,14bR)-8,9,10-trihydroxy-4,8a-bis(hydroxymethyl)-4,6a,6b,11,11,14b-hexamethyl-1,2,3,4a,5,6,7,8,9,10,12,12a,14,14a-tetradecahydropicen-3-yl]oxy]-3,4,5-trihydroxyoxane-2-carboxylic acid

> <PUBCHEM_IUPAC_SYSTEMATIC_NAME>
(2S,3S,4S,5R,6R)-6-[[(3S,4R,6aR,6bS,8S,8aR,9R,10R,12aS,14bR)-4,8a-bis(hydroxymethyl)-4,6a,6b,11,11,14b-hexamethyl-8,9,10-tris(oxidanyl)-1,2,3,4a,5,6,7,8,9,10,12,12a,14,14a-tetradecahydropicen-3-yl]oxy]-3,4,5-tris(oxidanyl)oxane-2-carboxylic acid

> <PUBCHEM_IUPAC_TRADITIONAL_NAME>
(2S,3S,4S,5R,6R)-6-[[(3S,4R,6aR,6bS,8S,8aR,9R,10R,12aS,14bR)-8,9,10-trihydroxy-4,6a,6b,11,11,14b-hexamethyl-4,8a-dimethylol-1,2,3,4a,5,6,7,8,9,10,12,12a,14,14a-tetradecahydropicen-3-yl]oxy]-3,4,5-trihydroxy-tetrahydropyran-2-carboxylic acid

> <PUBCHEM_IUPAC_INCHI>
InChI=1S/C36H58O12/c1-31(2)13-18-17-7-8-20-32(3)11-10-22(47-30-25(42)23(40)24(41)26(48-30)29(45)46)33(4,15-37)19(32)9-12-34(20,5)35(17,6)14-21(39)36(18,16-38)28(44)27(31)43/h7,18-28,30,37-44H,8-16H2,1-6H3,(H,45,46)/t18-,19?,20?,21-,22-,23-,24-,25+,26-,27-,28-,30+,32-,33-,34+,35+,36-/m0/s1

> <PUBCHEM_IUPAC_INCHIKEY>
NXUZSZLFZAMZLC-FAPIZEBQSA-N

> <PUBCHEM_XLOGP3_AA>
2.1

> <PUBCHEM_EXACT_MASS>
682.39282728

> <PUBCHEM_MOLECULAR_FORMULA>
C36H58O12

> <PUBCHEM_MOLECULAR_WEIGHT>
682.8

> <PUBCHEM_OPENEYE_CAN_SMILES>
CC1(CC2C3=CCC4C5(CCC(C(C5CCC4(C3(CC(C2(C(C1O)O)CO)O)C)C)(C)CO)OC6C(C(C(C(O6)C(=O)O)O)O)O)C)C

> <PUBCHEM_OPENEYE_ISO_SMILES>
C[C@]12CC[C@@H]([C@@](C1CC[C@@]3(C2CC=C4[C@]3(C[C@@H]([C@@]5([C@H]4CC([C@H]([C@@H]5O)O)(C)C)CO)O)C)C)(C)CO)O[C@H]6[C@@H]([C@H]([C@@H]([C@H](O6)C(=O)O)O)O)O

> <PUBCHEM_CACTVS_TPSA>
218

> <PUBCHEM_MONOISOTOPIC_WEIGHT>
682.39282728

> <PUBCHEM_TOTAL_CHARGE>
0

> <PUBCHEM_HEAVY_ATOM_COUNT>
48

> <PUBCHEM_ATOM_DEF_STEREO_COUNT>
15

> <PUBCHEM_ATOM_UDEF_STEREO_COUNT>
2

> <PUBCHEM_BOND_DEF_STEREO_COUNT>
0

> <PUBCHEM_BOND_UDEF_STEREO_COUNT>
0

> <PUBCHEM_ISOTOPIC_ATOM_COUNT>
0

> <PUBCHEM_COMPONENT_COUNT>
1

> <PUBCHEM_CACTVS_TAUTO_COUNT>
-1

> <PUBCHEM_COORDINATE_TYPE>
1
5
255

> <PUBCHEM_BONDANNOTATIONS>
27  1  5
47  10  6
13  28  5
14  25  3
15  31  5
16  33  6
17  22  3
29  2  5
43  2  5
20  53  5
21  38  5
23  40  5
35  3  6
37  4  5
46  48  5
44  8  6
45  9  5

$$$$
