11499198
  -OEChem-01112202042D

124129  0     1  0  0  0  0  0999 V2000
    5.1643    3.2203    0.0000 O   0  0  0  0  0  0  0  0  0  0  0  0
    6.8671   -2.9699    0.0000 O   0  0  0  0  0  0  0  0  0  0  0  0
    5.1350   -2.9699    0.0000 O   0  0  0  0  0  0  0  0  0  0  0  0
    6.8671   -4.9699    0.0000 O   0  0  0  0  0  0  0  0  0  0  0  0
    5.1350   -5.9699    0.0000 O   0  0  0  0  0  0  0  0  0  0  0  0
    3.4030   -4.9699    0.0000 O   0  0  0  0  0  0  0  0  0  0  0  0
    6.0010   -6.4699    0.0000 O   0  0  0  0  0  0  0  0  0  0  0  0
    2.5369   -3.4699    0.0000 O   0  0  0  0  0  0  0  0  0  0  0  0
    8.5991   -5.9699    0.0000 O   0  0  0  0  0  0  0  0  0  0  0  0
    8.5991   -7.9699    0.0000 O   0  0  0  0  0  0  0  0  0  0  0  0
    6.8671   -8.9699    0.0000 O   0  0  0  0  0  0  0  0  0  0  0  0
    5.1350   -8.9699    0.0000 O   0  0  0  0  0  0  0  0  0  0  0  0
    7.7681    1.7303    0.0000 C   0  0  1  0  0  0  0  0  0  0  0  0
    7.7643    2.7303    0.0000 C   0  0  1  0  0  0  0  0  0  0  0  0
    6.9040    1.2270    0.0000 C   0  0  1  0  0  0  0  0  0  0  0  0
    6.8920    0.1854    0.0000 C   0  0  2  0  0  0  0  0  0  0  0  0
    6.8963    3.2270    0.0000 C   0  0  2  0  0  0  0  0  0  0  0  0
    7.7920   -0.3389    0.0000 C   0  0  1  0  0  0  0  0  0  0  0  0
    8.6801    1.2270    0.0000 C   0  0  0  0  0  0  0  0  0  0  0  0
    6.0361    1.7236    0.0000 C   0  0  0  0  0  0  0  0  0  0  0  0
    6.0322    2.7236    0.0000 C   0  0  1  0  0  0  0  0  0  0  0  0
    8.6921    0.1854    0.0000 C   0  0  0  0  0  0  0  0  0  0  0  0
    8.4987    3.4002    0.0000 C   0  0  0  0  0  0  0  0  0  0  0  0
    7.8046   -1.4238    0.0000 C   0  0  0  0  0  0  0  0  0  0  0  0
    7.1018    4.1996    0.0000 C   0  0  2  0  0  0  0  0  0  0  0  0
    5.9421   -0.3389    0.0000 C   0  0  0  0  0  0  0  0  0  0  0  0
    8.0901    4.3065    0.0000 C   0  0  0  0  0  0  0  0  0  0  0  0
    8.7522    1.9078    0.0000 C   0  0  0  0  0  0  0  0  0  0  0  0
    8.7497    2.5605    0.0000 C   0  0  0  0  0  0  0  0  0  0  0  0
    6.8671   -1.9699    0.0000 C   0  0  2  0  0  0  0  0  0  0  0  0
    6.0279    0.6888    0.0000 C   0  0  0  0  0  0  0  0  0  0  0  0
    5.9295   -1.4238    0.0000 C   0  0  0  0  0  0  0  0  0  0  0  0
    8.8046   -1.4161    0.0000 C   0  0  0  0  0  0  0  0  0  0  0  0
    8.3113   -2.2859    0.0000 C   0  0  0  0  0  0  0  0  0  0  0  0
    6.4311    4.9413    0.0000 C   0  0  0  0  0  0  0  0  0  0  0  0
    6.7381    5.8930    0.0000 C   0  0  0  0  0  0  0  0  0  0  0  0
    5.4534    4.7313    0.0000 C   0  0  0  0  0  0  0  0  0  0  0  0
    6.0010   -3.4699    0.0000 C   0  0  2  0  0  0  0  0  0  0  0  0
    6.0674    6.6348    0.0000 C   0  0  0  0  0  0  0  0  0  0  0  0
    6.0010   -4.4699    0.0000 C   0  0  1  0  0  0  0  0  0  0  0  0
    5.1350   -4.9699    0.0000 C   0  0  2  0  0  0  0  0  0  0  0  0
    4.2690   -3.4699    0.0000 C   0  0  1  0  0  0  0  0  0  0  0  0
    6.3744    7.5865    0.0000 C   0  0  0  0  0  0  0  0  0  0  0  0
    4.2690   -4.4699    0.0000 C   0  0  1  0  0  0  0  0  0  0  0  0
    3.4030   -2.9699    0.0000 C   0  0  0  0  0  0  0  0  0  0  0  0
    5.7036    8.3282    0.0000 C   0  0  0  0  0  0  0  0  0  0  0  0
    6.8671   -5.9699    0.0000 C   0  0  2  0  0  0  0  0  0  0  0  0
    7.7331   -6.4699    0.0000 C   0  0  1  0  0  0  0  0  0  0  0  0
    6.0106    9.2799    0.0000 C   0  0  0  0  0  0  0  0  0  0  0  0
    4.7259    8.1182    0.0000 C   0  0  0  0  0  0  0  0  0  0  0  0
    7.7331   -7.4699    0.0000 C   0  0  2  0  0  0  0  0  0  0  0  0
    6.0010   -7.4699    0.0000 C   0  0  1  0  0  0  0  0  0  0  0  0
    6.8671   -7.9699    0.0000 C   0  0  1  0  0  0  0  0  0  0  0  0
    5.1350   -7.9699    0.0000 C   0  0  0  0  0  0  0  0  0  0  0  0
    7.6385    0.7992    0.0000 H   0  0  0  0  0  0  0  0  0  0  0  0
    6.2074    3.7248    0.0000 H   0  0  0  0  0  0  0  0  0  0  0  0
    8.5314   -0.7582    0.0000 H   0  0  0  0  0  0  0  0  0  0  0  0
    9.2921    1.1280    0.0000 H   0  0  0  0  0  0  0  0  0  0  0  0
    8.8824    1.8131    0.0000 H   0  0  0  0  0  0  0  0  0  0  0  0
    5.4251    1.8290    0.0000 H   0  0  0  0  0  0  0  0  0  0  0  0
    5.8263    1.1402    0.0000 H   0  0  0  0  0  0  0  0  0  0  0  0
    5.4965    2.4116    0.0000 H   0  0  0  0  0  0  0  0  0  0  0  0
    8.9079   -0.3958    0.0000 H   0  0  0  0  0  0  0  0  0  0  0  0
    9.3017    0.2986    0.0000 H   0  0  0  0  0  0  0  0  0  0  0  0
    8.8661    2.9008    0.0000 H   0  0  0  0  0  0  0  0  0  0  0  0
    9.0340    3.7131    0.0000 H   0  0  0  0  0  0  0  0  0  0  0  0
    7.3225    4.7790    0.0000 H   0  0  0  0  0  0  0  0  0  0  0  0
    5.7398    0.2472    0.0000 H   0  0  0  0  0  0  0  0  0  0  0  0
    5.3300   -0.4379    0.0000 H   0  0  0  0  0  0  0  0  0  0  0  0
    8.6790    4.5005    0.0000 H   0  0  0  0  0  0  0  0  0  0  0  0
    7.9590    4.9124    0.0000 H   0  0  0  0  0  0  0  0  0  0  0  0
    8.8623    1.2976    0.0000 H   0  0  0  0  0  0  0  0  0  0  0  0
    9.3624    2.0178    0.0000 H   0  0  0  0  0  0  0  0  0  0  0  0
    8.6422    2.5179    0.0000 H   0  0  0  0  0  0  0  0  0  0  0  0
    8.6444    1.9495    0.0000 H   0  0  0  0  0  0  0  0  0  0  0  0
    9.3607    2.4552    0.0000 H   0  0  0  0  0  0  0  0  0  0  0  0
    8.8550    3.1715    0.0000 H   0  0  0  0  0  0  0  0  0  0  0  0
    7.4046   -2.2789    0.0000 H   0  0  0  0  0  0  0  0  0  0  0  0
    6.3400    1.2245    0.0000 H   0  0  0  0  0  0  0  0  0  0  0  0
    5.4922    1.0008    0.0000 H   0  0  0  0  0  0  0  0  0  0  0  0
    5.7158    0.1530    0.0000 H   0  0  0  0  0  0  0  0  0  0  0  0
    5.3199   -1.3106    0.0000 H   0  0  0  0  0  0  0  0  0  0  0  0
    5.7137   -2.0050    0.0000 H   0  0  0  0  0  0  0  0  0  0  0  0
    8.8094   -2.0360    0.0000 H   0  0  0  0  0  0  0  0  0  0  0  0
    9.4246   -1.4113    0.0000 H   0  0  0  0  0  0  0  0  0  0  0  0
    8.7998   -0.7961    0.0000 H   0  0  0  0  0  0  0  0  0  0  0  0
    7.7767   -2.6000    0.0000 H   0  0  0  0  0  0  0  0  0  0  0  0
    8.6254   -2.8204    0.0000 H   0  0  0  0  0  0  0  0  0  0  0  0
    8.8458   -1.9718    0.0000 H   0  0  0  0  0  0  0  0  0  0  0  0
    4.6286    2.9082    0.0000 H   0  0  0  0  0  0  0  0  0  0  0  0
    7.2861    5.6031    0.0000 H   0  0  0  0  0  0  0  0  0  0  0  0
    7.1187    6.3824    0.0000 H   0  0  0  0  0  0  0  0  0  0  0  0
    5.0375    5.1912    0.0000 H   0  0  0  0  0  0  0  0  0  0  0  0
    5.2630    4.1413    0.0000 H   0  0  0  0  0  0  0  0  0  0  0  0
    6.0010   -2.8499    0.0000 H   0  0  0  0  0  0  0  0  0  0  0  0
    5.5193    6.9247    0.0000 H   0  0  0  0  0  0  0  0  0  0  0  0
    5.6867    6.1454    0.0000 H   0  0  0  0  0  0  0  0  0  0  0  0
    6.0010   -5.0899    0.0000 H   0  0  0  0  0  0  0  0  0  0  0  0
    4.5981   -5.2799    0.0000 H   0  0  0  0  0  0  0  0  0  0  0  0
    4.2690   -2.8499    0.0000 H   0  0  0  0  0  0  0  0  0  0  0  0
    6.9805    7.7166    0.0000 H   0  0  0  0  0  0  0  0  0  0  0  0
    4.2690   -5.0899    0.0000 H   0  0  0  0  0  0  0  0  0  0  0  0
    3.8015   -2.4949    0.0000 H   0  0  0  0  0  0  0  0  0  0  0  0
    3.0044   -2.4949    0.0000 H   0  0  0  0  0  0  0  0  0  0  0  0
    7.4040   -5.6599    0.0000 H   0  0  0  0  0  0  0  0  0  0  0  0
    4.5981   -6.2799    0.0000 H   0  0  0  0  0  0  0  0  0  0  0  0
    3.4030   -5.5899    0.0000 H   0  0  0  0  0  0  0  0  0  0  0  0
    8.2700   -6.7799    0.0000 H   0  0  0  0  0  0  0  0  0  0  0  0
    6.6007    9.0895    0.0000 H   0  0  0  0  0  0  0  0  0  0  0  0
    6.2010    9.8700    0.0000 H   0  0  0  0  0  0  0  0  0  0  0  0
    5.4206    9.4702    0.0000 H   0  0  0  0  0  0  0  0  0  0  0  0
    4.5958    8.7244    0.0000 H   0  0  0  0  0  0  0  0  0  0  0  0
    4.1198    7.9880    0.0000 H   0  0  0  0  0  0  0  0  0  0  0  0
    4.8561    7.5120    0.0000 H   0  0  0  0  0  0  0  0  0  0  0  0
    2.0000   -3.1599    0.0000 H   0  0  0  0  0  0  0  0  0  0  0  0
    7.7331   -8.0899    0.0000 H   0  0  0  0  0  0  0  0  0  0  0  0
    5.4641   -7.1599    0.0000 H   0  0  0  0  0  0  0  0  0  0  0  0
    7.4040   -8.2799    0.0000 H   0  0  0  0  0  0  0  0  0  0  0  0
    8.5991   -5.3499    0.0000 H   0  0  0  0  0  0  0  0  0  0  0  0
    4.9230   -7.3873    0.0000 H   0  0  0  0  0  0  0  0  0  0  0  0
    4.5244   -8.0776    0.0000 H   0  0  0  0  0  0  0  0  0  0  0  0
    9.1360   -7.6599    0.0000 H   0  0  0  0  0  0  0  0  0  0  0  0
    7.4040   -9.2799    0.0000 H   0  0  0  0  0  0  0  0  0  0  0  0
    5.6720   -9.2799    0.0000 H   0  0  0  0  0  0  0  0  0  0  0  0
 21  1  1  1  0  0  0
  1 90  1  0  0  0  0
 30  2  1  1  0  0  0
 38  2  1  1  0  0  0
  3 38  1  0  0  0  0
  3 42  1  0  0  0  0
 40  4  1  6  0  0  0
 47  4  1  1  0  0  0
 41  5  1  1  0  0  0
  5106  1  0  0  0  0
 44  6  1  6  0  0  0
  6107  1  0  0  0  0
  7 47  1  0  0  0  0
  7 52  1  0  0  0  0
  8 45  1  0  0  0  0
  8115  1  0  0  0  0
 48  9  1  6  0  0  0
  9119  1  0  0  0  0
 51 10  1  1  0  0  0
 10122  1  0  0  0  0
 53 11  1  6  0  0  0
 11123  1  0  0  0  0
 12 54  1  0  0  0  0
 12124  1  0  0  0  0
 13 14  1  0  0  0  0
 13 15  1  0  0  0  0
 13 19  1  0  0  0  0
 13 28  1  1  0  0  0
 14 17  1  0  0  0  0
 14 23  1  0  0  0  0
 14 29  1  6  0  0  0
 15 16  1  0  0  0  0
 15 20  1  0  0  0  0
 15 55  1  6  0  0  0
 16 18  1  0  0  0  0
 16 26  1  0  0  0  0
 16 31  1  1  0  0  0
 17 21  1  0  0  0  0
 17 25  1  0  0  0  0
 17 56  1  1  0  0  0
 18 22  1  0  0  0  0
 18 24  1  0  0  0  0
 18 57  1  6  0  0  0
 19 22  1  0  0  0  0
 19 58  1  0  0  0  0
 19 59  1  0  0  0  0
 20 21  1  0  0  0  0
 20 60  1  0  0  0  0
 20 61  1  0  0  0  0
 21 62  1  0  0  0  0
 22 63  1  0  0  0  0
 22 64  1  0  0  0  0
 23 27  1  0  0  0  0
 23 65  1  0  0  0  0
 23 66  1  0  0  0  0
 24 30  1  0  0  0  0
 24 33  1  0  0  0  0
 24 34  1  0  0  0  0
 25 27  1  0  0  0  0
 25 35  1  1  0  0  0
 25 67  1  0  0  0  0
 26 32  1  0  0  0  0
 26 68  1  0  0  0  0
 26 69  1  0  0  0  0
 27 70  1  0  0  0  0
 27 71  1  0  0  0  0
 28 72  1  0  0  0  0
 28 73  1  0  0  0  0
 28 74  1  0  0  0  0
 29 75  1  0  0  0  0
 29 76  1  0  0  0  0
 29 77  1  0  0  0  0
 30 32  1  0  0  0  0
 30 78  1  0  0  0  0
 31 79  1  0  0  0  0
 31 80  1  0  0  0  0
 31 81  1  0  0  0  0
 32 82  1  0  0  0  0
 32 83  1  0  0  0  0
 33 84  1  0  0  0  0
 33 85  1  0  0  0  0
 33 86  1  0  0  0  0
 34 87  1  0  0  0  0
 34 88  1  0  0  0  0
 34 89  1  0  0  0  0
 35 36  1  0  0  0  0
 35 37  2  0  0  0  0
 36 39  1  0  0  0  0
 36 91  1  0  0  0  0
 36 92  1  0  0  0  0
 37 93  1  0  0  0  0
 37 94  1  0  0  0  0
 38 40  1  0  0  0  0
 38 95  1  0  0  0  0
 39 43  1  0  0  0  0
 39 96  1  0  0  0  0
 39 97  1  0  0  0  0
 40 41  1  0  0  0  0
 40 98  1  0  0  0  0
 41 44  1  0  0  0  0
 41 99  1  0  0  0  0
 42 44  1  0  0  0  0
 42 45  1  1  0  0  0
 42100  1  0  0  0  0
 43 46  2  0  0  0  0
 43101  1  0  0  0  0
 44102  1  0  0  0  0
 45103  1  0  0  0  0
 45104  1  0  0  0  0
 46 49  1  0  0  0  0
 46 50  1  0  0  0  0
 47 48  1  0  0  0  0
 47105  1  0  0  0  0
 48 51  1  0  0  0  0
 48108  1  0  0  0  0
 49109  1  0  0  0  0
 49110  1  0  0  0  0
 49111  1  0  0  0  0
 50112  1  0  0  0  0
 50113  1  0  0  0  0
 50114  1  0  0  0  0
 51 53  1  0  0  0  0
 51116  1  0  0  0  0
 52 53  1  0  0  0  0
 52 54  1  1  0  0  0
 52117  1  0  0  0  0
 53118  1  0  0  0  0
 54120  1  0  0  0  0
 54121  1  0  0  0  0
M  END
> <PUBCHEM_COMPOUND_CID>
11499198

> <PUBCHEM_COMPOUND_CANONICALIZED>
1

> <PUBCHEM_CACTVS_COMPLEXITY>
1370

> <PUBCHEM_CACTVS_HBOND_ACCEPTOR>
12

> <PUBCHEM_CACTVS_HBOND_DONOR>
8

> <PUBCHEM_CACTVS_ROTATABLE_BOND>
10

> <PUBCHEM_CACTVS_SUBSKEYS>
AAADcfB8PAAAAAAAAAAAAAAAAAAAAYAAAAA0aMECAAAAAGDAAAAAGgAACAAADxSwgAMCCAAABgCAAiBCAAAAAAAgAAAACAAAAAgREAIAAQAiQAAFgAAPAAPA4PwPgAAAAAAAAADAAAYAADAAAQAACAAAAA==

> <PUBCHEM_IUPAC_OPENEYE_NAME>
(2S,3R,4S,5S,6R)-2-[(2R,3R,4S,5S,6R)-4,5-dihydroxy-6-(hydroxymethyl)-2-[[(3S,5R,8R,9R,10R,12R,13R,14R,17S)-12-hydroxy-4,4,8,10,14-pentamethyl-17-(5-methyl-1-methylene-hex-4-enyl)-2,3,5,6,7,9,11,12,13,15,16,17-dodecahydro-1H-cyclopenta[a]phenanthren-3-yl]oxy]tetrahydropyran-3-yl]oxy-6-(hydroxymethyl)tetrahydropyran-3,4,5-triol

> <PUBCHEM_IUPAC_CAS_NAME>
(2S,3R,4S,5S,6R)-2-[[(2R,3R,4S,5S,6R)-4,5-dihydroxy-6-(hydroxymethyl)-2-[[(3S,5R,8R,9R,10R,12R,13R,14R,17S)-12-hydroxy-4,4,8,10,14-pentamethyl-17-(6-methylhepta-1,5-dien-2-yl)-2,3,5,6,7,9,11,12,13,15,16,17-dodecahydro-1H-cyclopenta[a]phenanthren-3-yl]oxy]-3-oxanyl]oxy]-6-(hydroxymethyl)oxane-3,4,5-triol

> <PUBCHEM_IUPAC_NAME_MARKUP>
(2<I>S</I>,3<I>R</I>,4<I>S</I>,5<I>S</I>,6<I>R</I>)-2-[(2<I>R</I>,3<I>R</I>,4<I>S</I>,5<I>S</I>,6<I>R</I>)-4,5-dihydroxy-6-(hydroxymethyl)-2-[[(3<I>S</I>,5<I>R</I>,8<I>R</I>,9<I>R</I>,10<I>R</I>,12<I>R</I>,13<I>R</I>,14<I>R</I>,17<I>S</I>)-12-hydroxy-4,4,8,10,14-pentamethyl-17-(6-methylhepta-1,5-dien-2-yl)-2,3,5,6,7,9,11,12,13,15,16,17-dodecahydro-1<I>H</I>-cyclopenta[a]phenanthren-3-yl]oxy]oxan-3-yl]oxy-6-(hydroxymethyl)oxane-3,4,5-triol

> <PUBCHEM_IUPAC_NAME>
(2S,3R,4S,5S,6R)-2-[(2R,3R,4S,5S,6R)-4,5-dihydroxy-6-(hydroxymethyl)-2-[[(3S,5R,8R,9R,10R,12R,13R,14R,17S)-12-hydroxy-4,4,8,10,14-pentamethyl-17-(6-methylhepta-1,5-dien-2-yl)-2,3,5,6,7,9,11,12,13,15,16,17-dodecahydro-1H-cyclopenta[a]phenanthren-3-yl]oxy]oxan-3-yl]oxy-6-(hydroxymethyl)oxane-3,4,5-triol

> <PUBCHEM_IUPAC_SYSTEMATIC_NAME>
(2R,3S,4S,5R,6S)-2-(hydroxymethyl)-6-[(2R,3R,4S,5S,6R)-6-(hydroxymethyl)-4,5-bis(oxidanyl)-2-[[(3S,5R,8R,9R,10R,12R,13R,14R,17S)-4,4,8,10,14-pentamethyl-17-(6-methylhepta-1,5-dien-2-yl)-12-oxidanyl-2,3,5,6,7,9,11,12,13,15,16,17-dodecahydro-1H-cyclopenta[a]phenanthren-3-yl]oxy]oxan-3-yl]oxy-oxane-3,4,5-triol

> <PUBCHEM_IUPAC_TRADITIONAL_NAME>
(2S,3R,4S,5S,6R)-2-[(2R,3R,4S,5S,6R)-4,5-dihydroxy-2-[[(3S,5R,8R,9R,10R,12R,13R,14R,17S)-12-hydroxy-4,4,8,10,14-pentamethyl-17-(5-methyl-1-methylene-hex-4-enyl)-2,3,5,6,7,9,11,12,13,15,16,17-dodecahydro-1H-cyclopenta[a]phenanthren-3-yl]oxy]-6-methylol-tetrahydropyran-3-yl]oxy-6-methylol-tetrahydropyran-3,4,5-triol

> <PUBCHEM_IUPAC_INCHI>
InChI=1S/C42H70O12/c1-21(2)10-9-11-22(3)23-12-16-42(8)30(23)24(45)18-28-40(6)15-14-29(39(4,5)27(40)13-17-41(28,42)7)53-38-36(34(49)32(47)26(20-44)52-38)54-37-35(50)33(48)31(46)25(19-43)51-37/h10,23-38,43-50H,3,9,11-20H2,1-2,4-8H3/t23-,24-,25-,26-,27+,28-,29+,30+,31-,32-,33+,34+,35-,36-,37+,38+,40+,41-,42-/m1/s1

> <PUBCHEM_IUPAC_INCHIKEY>
KWDWBAISZWOAHD-MHOSXIPRSA-N

> <PUBCHEM_XLOGP3_AA>
5.4

> <PUBCHEM_EXACT_MASS>
766.48672766

> <PUBCHEM_MOLECULAR_FORMULA>
C42H70O12

> <PUBCHEM_MOLECULAR_WEIGHT>
767.0

> <PUBCHEM_OPENEYE_CAN_SMILES>
CC(=CCCC(=C)C1CCC2(C1C(CC3C2(CCC4C3(CCC(C4(C)C)OC5C(C(C(C(O5)CO)O)O)OC6C(C(C(C(O6)CO)O)O)O)C)C)O)C)C

> <PUBCHEM_OPENEYE_ISO_SMILES>
CC(=CCCC(=C)[C@H]1CC[C@@]2([C@@H]1[C@@H](C[C@H]3[C@]2(CC[C@@H]4[C@@]3(CC[C@@H](C4(C)C)O[C@H]5[C@@H]([C@H]([C@@H]([C@H](O5)CO)O)O)O[C@H]6[C@@H]([C@H]([C@@H]([C@H](O6)CO)O)O)O)C)C)O)C)C

> <PUBCHEM_CACTVS_TPSA>
199

> <PUBCHEM_MONOISOTOPIC_WEIGHT>
766.48672766

> <PUBCHEM_TOTAL_CHARGE>
0

> <PUBCHEM_HEAVY_ATOM_COUNT>
54

> <PUBCHEM_ATOM_DEF_STEREO_COUNT>
19

> <PUBCHEM_ATOM_UDEF_STEREO_COUNT>
0

> <PUBCHEM_BOND_DEF_STEREO_COUNT>
0

> <PUBCHEM_BOND_UDEF_STEREO_COUNT>
0

> <PUBCHEM_ISOTOPIC_ATOM_COUNT>
0

> <PUBCHEM_COMPONENT_COUNT>
1

> <PUBCHEM_CACTVS_TAUTO_COUNT>
1

> <PUBCHEM_COORDINATE_TYPE>
1
5
255

> <PUBCHEM_BONDANNOTATIONS>
21  1  5
51  10  5
53  11  6
13  28  5
14  29  6
15  55  6
16  31  5
17  56  5
18  57  6
30  2  5
38  2  5
25  35  5
40  4  6
47  4  5
42  45  5
41  5  5
52  54  5
44  6  6
48  9  6

$$$$
