11953919
  -OEChem-01082213102D

123128  0     1  0  0  0  0  0999 V2000
    9.5424    2.7172    0.0000 O   0  0  0  0  0  0  0  0  0  0  0  0
    6.8671   -5.0350    0.0000 O   0  0  0  0  0  0  0  0  0  0  0  0
    8.4192    4.5856    0.0000 O   0  0  0  0  0  0  0  0  0  0  0  0
    6.8270    5.3584    0.0000 O   0  0  0  0  0  0  0  0  0  0  0  0
    8.9636    4.1881    0.0000 O   0  0  0  0  0  0  0  0  0  0  0  0
    9.3112   -4.3433    0.0000 O   0  0  0  0  0  0  0  0  0  0  0  0
    5.1350   -5.0350    0.0000 O   0  0  0  0  0  0  0  0  0  0  0  0
    6.8671   -7.0350    0.0000 O   0  0  0  0  0  0  0  0  0  0  0  0
    5.0950    5.3450    0.0000 O   0  0  0  0  0  0  0  0  0  0  0  0
   10.5979    3.6146    0.0000 O   0  0  0  0  0  0  0  0  0  0  0  0
    5.1350   -8.0350    0.0000 O   0  0  0  0  0  0  0  0  0  0  0  0
    3.4030   -7.0350    0.0000 O   0  0  0  0  0  0  0  0  0  0  0  0
    2.5369   -5.5350    0.0000 O   0  0  0  0  0  0  0  0  0  0  0  0
    3.4030   -4.0350    0.0000 O   0  0  0  0  0  0  0  0  0  0  0  0
    7.7681   -0.3347    0.0000 C   0  0  2  0  0  0  0  0  0  0  0  0
    6.9040   -0.8381    0.0000 C   0  0  1  0  0  0  0  0  0  0  0  0
    6.8920   -1.8796    0.0000 C   0  0  2  0  0  0  0  0  0  0  0  0
    7.7643    0.6653    0.0000 C   0  0  1  0  0  0  0  0  0  0  0  0
    7.7920   -2.4039    0.0000 C   0  0  1  0  0  0  0  0  0  0  0  0
    8.6801   -0.8381    0.0000 C   0  0  0  0  0  0  0  0  0  0  0  0
    6.8963    1.1619    0.0000 C   0  0  0  0  0  0  0  0  0  0  0  0
    6.8762    2.2034    0.0000 C   0  0  1  0  0  0  0  0  0  0  0  0
    7.7722    2.7346    0.0000 C   0  0  1  0  0  0  0  0  0  0  0  0
    8.6921   -1.8796    0.0000 C   0  0  0  0  0  0  0  0  0  0  0  0
    7.8046   -3.4888    0.0000 C   0  0  1  0  0  0  0  0  0  0  0  0
    8.6723    1.1756    0.0000 C   0  0  0  0  0  0  0  0  0  0  0  0
    6.0361   -0.3414    0.0000 C   0  0  0  0  0  0  0  0  0  0  0  0
    5.9421   -2.4039    0.0000 C   0  0  0  0  0  0  0  0  0  0  0  0
    8.6763    2.2172    0.0000 C   0  0  2  0  0  0  0  0  0  0  0  0
    8.7522   -0.1573    0.0000 C   0  0  0  0  0  0  0  0  0  0  0  0
    6.8671   -4.0350    0.0000 C   0  0  2  0  0  0  0  0  0  0  0  0
    6.0322    0.6586    0.0000 C   0  0  0  0  0  0  0  0  0  0  0  0
    6.0279   -1.3763    0.0000 C   0  0  0  0  0  0  0  0  0  0  0  0
    5.9223    2.7203    0.0000 C   0  0  0  0  0  0  0  0  0  0  0  0
    8.7497    0.4954    0.0000 C   0  0  0  0  0  0  0  0  0  0  0  0
    5.9295   -3.4888    0.0000 C   0  0  0  0  0  0  0  0  0  0  0  0
    7.7764    3.8196    0.0000 C   0  0  2  0  0  0  0  0  0  0  0  0
    5.9014    3.8051    0.0000 C   0  0  0  0  0  0  0  0  0  0  0  0
    6.8347    4.3584    0.0000 C   0  0  1  0  0  0  0  0  0  0  0  0
    8.6324    3.2446    0.0000 C   0  0  0  0  0  0  0  0  0  0  0  0
    8.8046   -3.4811    0.0000 C   0  0  0  0  0  0  0  0  0  0  0  0
    8.3113   -4.3510    0.0000 C   0  0  0  0  0  0  0  0  0  0  0  0
    4.9015    3.7897    0.0000 C   0  0  0  0  0  0  0  0  0  0  0  0
    5.3881    4.6633    0.0000 C   0  0  0  0  0  0  0  0  0  0  0  0
    6.0010   -5.5350    0.0000 C   0  0  2  0  0  0  0  0  0  0  0  0
    6.0010   -6.5350    0.0000 C   0  0  1  0  0  0  0  0  0  0  0  0
    5.9572    5.8517    0.0000 C   0  0  0  0  0  0  0  0  0  0  0  0
    9.9463    4.3732    0.0000 C   0  0  0  0  0  0  0  0  0  0  0  0
    5.1350   -7.0350    0.0000 C   0  0  2  0  0  0  0  0  0  0  0  0
    4.2690   -5.5350    0.0000 C   0  0  1  0  0  0  0  0  0  0  0  0
    4.2690   -6.5350    0.0000 C   0  0  1  0  0  0  0  0  0  0  0  0
    5.9494    6.8517    0.0000 C   0  0  0  0  0  0  0  0  0  0  0  0
   10.2774    5.3167    0.0000 C   0  0  0  0  0  0  0  0  0  0  0  0
    3.4030   -5.0350    0.0000 C   0  0  0  0  0  0  0  0  0  0  0  0
    6.8116    7.3583    0.0000 C   0  0  0  0  0  0  0  0  0  0  0  0
    5.0796    7.3450    0.0000 C   0  0  0  0  0  0  0  0  0  0  0  0
    5.0719    8.3450    0.0000 C   0  0  0  0  0  0  0  0  0  0  0  0
    7.6385   -1.2659    0.0000 H   0  0  0  0  0  0  0  0  0  0  0  0
    8.5314   -2.8232    0.0000 H   0  0  0  0  0  0  0  0  0  0  0  0
    9.2921   -0.9371    0.0000 H   0  0  0  0  0  0  0  0  0  0  0  0
    8.8824   -0.2520    0.0000 H   0  0  0  0  0  0  0  0  0  0  0  0
    6.1502    1.7614    0.0000 H   0  0  0  0  0  0  0  0  0  0  0  0
    8.9079   -2.4609    0.0000 H   0  0  0  0  0  0  0  0  0  0  0  0
    9.3017   -1.7665    0.0000 H   0  0  0  0  0  0  0  0  0  0  0  0
    8.8791    0.5911    0.0000 H   0  0  0  0  0  0  0  0  0  0  0  0
    9.2836    1.2794    0.0000 H   0  0  0  0  0  0  0  0  0  0  0  0
    5.4251   -0.2361    0.0000 H   0  0  0  0  0  0  0  0  0  0  0  0
    5.8263   -0.9248    0.0000 H   0  0  0  0  0  0  0  0  0  0  0  0
    5.7398   -1.8178    0.0000 H   0  0  0  0  0  0  0  0  0  0  0  0
    5.3300   -2.5029    0.0000 H   0  0  0  0  0  0  0  0  0  0  0  0
    9.2127    1.9062    0.0000 H   0  0  0  0  0  0  0  0  0  0  0  0
    8.8623   -0.7675    0.0000 H   0  0  0  0  0  0  0  0  0  0  0  0
    9.3624   -0.0473    0.0000 H   0  0  0  0  0  0  0  0  0  0  0  0
    8.6422    0.4529    0.0000 H   0  0  0  0  0  0  0  0  0  0  0  0
    7.4046   -4.3439    0.0000 H   0  0  0  0  0  0  0  0  0  0  0  0
    5.4941    0.9665    0.0000 H   0  0  0  0  0  0  0  0  0  0  0  0
    6.3400   -0.8406    0.0000 H   0  0  0  0  0  0  0  0  0  0  0  0
    5.4922   -1.0642    0.0000 H   0  0  0  0  0  0  0  0  0  0  0  0
    5.7158   -1.9120    0.0000 H   0  0  0  0  0  0  0  0  0  0  0  0
    5.3095    2.8146    0.0000 H   0  0  0  0  0  0  0  0  0  0  0  0
    5.7246    2.1327    0.0000 H   0  0  0  0  0  0  0  0  0  0  0  0
    8.6444   -0.1156    0.0000 H   0  0  0  0  0  0  0  0  0  0  0  0
    9.3607    0.3901    0.0000 H   0  0  0  0  0  0  0  0  0  0  0  0
    8.8550    1.1064    0.0000 H   0  0  0  0  0  0  0  0  0  0  0  0
    5.3199   -3.3757    0.0000 H   0  0  0  0  0  0  0  0  0  0  0  0
    5.7137   -4.0701    0.0000 H   0  0  0  0  0  0  0  0  0  0  0  0
    8.3586    3.6064    0.0000 H   0  0  0  0  0  0  0  0  0  0  0  0
    7.3698    4.6715    0.0000 H   0  0  0  0  0  0  0  0  0  0  0  0
    8.7824    2.6430    0.0000 H   0  0  0  0  0  0  0  0  0  0  0  0
    9.2518    3.2157    0.0000 H   0  0  0  0  0  0  0  0  0  0  0  0
    9.3855   -3.2646    0.0000 H   0  0  0  0  0  0  0  0  0  0  0  0
    8.6922   -2.8714    0.0000 H   0  0  0  0  0  0  0  0  0  0  0  0
    7.7767   -4.6651    0.0000 H   0  0  0  0  0  0  0  0  0  0  0  0
    8.6254   -4.8855    0.0000 H   0  0  0  0  0  0  0  0  0  0  0  0
    8.8458   -4.0368    0.0000 H   0  0  0  0  0  0  0  0  0  0  0  0
   10.0793    2.4072    0.0000 H   0  0  0  0  0  0  0  0  0  0  0  0
    4.8920    4.4096    0.0000 H   0  0  0  0  0  0  0  0  0  0  0  0
    4.2816    3.7801    0.0000 H   0  0  0  0  0  0  0  0  0  0  0  0
    4.9111    3.1698    0.0000 H   0  0  0  0  0  0  0  0  0  0  0  0
    5.9202    4.9816    0.0000 H   0  0  0  0  0  0  0  0  0  0  0  0
    5.0699    5.1954    0.0000 H   0  0  0  0  0  0  0  0  0  0  0  0
    4.8560    4.3451    0.0000 H   0  0  0  0  0  0  0  0  0  0  0  0
    8.2072    5.1682    0.0000 H   0  0  0  0  0  0  0  0  0  0  0  0
    6.0010   -4.9150    0.0000 H   0  0  0  0  0  0  0  0  0  0  0  0
    9.9312   -4.3385    0.0000 H   0  0  0  0  0  0  0  0  0  0  0  0
    6.0010   -7.1550    0.0000 H   0  0  0  0  0  0  0  0  0  0  0  0
    4.5981   -7.3450    0.0000 H   0  0  0  0  0  0  0  0  0  0  0  0
    4.2690   -4.9150    0.0000 H   0  0  0  0  0  0  0  0  0  0  0  0
    3.7320   -6.2250    0.0000 H   0  0  0  0  0  0  0  0  0  0  0  0
   10.8625    5.1114    0.0000 H   0  0  0  0  0  0  0  0  0  0  0  0
   10.4827    5.9018    0.0000 H   0  0  0  0  0  0  0  0  0  0  0  0
    9.6924    5.5220    0.0000 H   0  0  0  0  0  0  0  0  0  0  0  0
    7.4040   -6.7250    0.0000 H   0  0  0  0  0  0  0  0  0  0  0  0
    5.6720   -8.3450    0.0000 H   0  0  0  0  0  0  0  0  0  0  0  0
    7.1257    6.8238    0.0000 H   0  0  0  0  0  0  0  0  0  0  0  0
    7.3461    7.6725    0.0000 H   0  0  0  0  0  0  0  0  0  0  0  0
    6.4974    7.8929    0.0000 H   0  0  0  0  0  0  0  0  0  0  0  0
    4.5450    7.0308    0.0000 H   0  0  0  0  0  0  0  0  0  0  0  0
    3.4030   -7.6550    0.0000 H   0  0  0  0  0  0  0  0  0  0  0  0
    5.6919    8.3497    0.0000 H   0  0  0  0  0  0  0  0  0  0  0  0
    5.0671    8.9649    0.0000 H   0  0  0  0  0  0  0  0  0  0  0  0
    4.4519    8.3402    0.0000 H   0  0  0  0  0  0  0  0  0  0  0  0
    2.0000   -5.2250    0.0000 H   0  0  0  0  0  0  0  0  0  0  0  0
 29  1  1  1  0  0  0
  1 96  1  0  0  0  0
 31  2  1  1  0  0  0
 45  2  1  1  0  0  0
 37  3  1  6  0  0  0
  3103  1  0  0  0  0
 39  4  1  1  0  0  0
  4 47  1  0  0  0  0
  5 40  1  0  0  0  0
  5 48  1  0  0  0  0
  6 41  1  0  0  0  0
  6105  1  0  0  0  0
  7 45  1  0  0  0  0
  7 50  1  0  0  0  0
 46  8  1  6  0  0  0
  8113  1  0  0  0  0
  9 47  2  0  0  0  0
 10 48  2  0  0  0  0
 49 11  1  1  0  0  0
 11114  1  0  0  0  0
 51 12  1  6  0  0  0
 12119  1  0  0  0  0
 13 54  1  0  0  0  0
 13123  1  0  0  0  0
 14 54  2  0  0  0  0
 15 16  1  0  0  0  0
 15 18  1  0  0  0  0
 15 20  1  0  0  0  0
 15 30  1  1  0  0  0
 16 17  1  0  0  0  0
 16 27  1  0  0  0  0
 16 58  1  6  0  0  0
 17 19  1  0  0  0  0
 17 28  1  0  0  0  0
 17 33  1  1  0  0  0
 18 21  1  0  0  0  0
 18 26  1  0  0  0  0
 18 35  1  6  0  0  0
 19 24  1  0  0  0  0
 19 25  1  0  0  0  0
 19 59  1  6  0  0  0
 20 24  1  0  0  0  0
 20 60  1  0  0  0  0
 20 61  1  0  0  0  0
 21 22  1  0  0  0  0
 21 32  2  0  0  0  0
 22 23  1  0  0  0  0
 22 34  1  0  0  0  0
 22 62  1  1  0  0  0
 23 29  1  0  0  0  0
 23 37  1  0  0  0  0
 23 40  1  1  0  0  0
 24 63  1  0  0  0  0
 24 64  1  0  0  0  0
 25 31  1  0  0  0  0
 25 41  1  0  0  0  0
 25 42  1  1  0  0  0
 26 29  1  0  0  0  0
 26 65  1  0  0  0  0
 26 66  1  0  0  0  0
 27 32  1  0  0  0  0
 27 67  1  0  0  0  0
 27 68  1  0  0  0  0
 28 36  1  0  0  0  0
 28 69  1  0  0  0  0
 28 70  1  0  0  0  0
 29 71  1  0  0  0  0
 30 72  1  0  0  0  0
 30 73  1  0  0  0  0
 30 74  1  0  0  0  0
 31 36  1  0  0  0  0
 31 75  1  0  0  0  0
 32 76  1  0  0  0  0
 33 77  1  0  0  0  0
 33 78  1  0  0  0  0
 33 79  1  0  0  0  0
 34 38  1  0  0  0  0
 34 80  1  0  0  0  0
 34 81  1  0  0  0  0
 35 82  1  0  0  0  0
 35 83  1  0  0  0  0
 35 84  1  0  0  0  0
 36 85  1  0  0  0  0
 36 86  1  0  0  0  0
 37 39  1  0  0  0  0
 37 87  1  0  0  0  0
 38 39  1  0  0  0  0
 38 43  1  0  0  0  0
 38 44  1  0  0  0  0
 39 88  1  0  0  0  0
 40 89  1  0  0  0  0
 40 90  1  0  0  0  0
 41 91  1  0  0  0  0
 41 92  1  0  0  0  0
 42 93  1  0  0  0  0
 42 94  1  0  0  0  0
 42 95  1  0  0  0  0
 43 97  1  0  0  0  0
 43 98  1  0  0  0  0
 43 99  1  0  0  0  0
 44100  1  0  0  0  0
 44101  1  0  0  0  0
 44102  1  0  0  0  0
 45 46  1  0  0  0  0
 45104  1  0  0  0  0
 46 49  1  0  0  0  0
 46106  1  0  0  0  0
 47 52  1  0  0  0  0
 48 53  1  0  0  0  0
 49 51  1  0  0  0  0
 49107  1  0  0  0  0
 50 51  1  0  0  0  0
 50 54  1  1  0  0  0
 50108  1  0  0  0  0
 51109  1  0  0  0  0
 52 55  1  0  0  0  0
 52 56  2  0  0  0  0
 53110  1  0  0  0  0
 53111  1  0  0  0  0
 53112  1  0  0  0  0
 55115  1  0  0  0  0
 55116  1  0  0  0  0
 55117  1  0  0  0  0
 56 57  1  0  0  0  0
 56118  1  0  0  0  0
 57120  1  0  0  0  0
 57121  1  0  0  0  0
 57122  1  0  0  0  0
M  END
> <PUBCHEM_COMPOUND_CID>
11953919

> <PUBCHEM_COMPOUND_CANONICALIZED>
1

> <PUBCHEM_CACTVS_COMPLEXITY>
1660

> <PUBCHEM_CACTVS_HBOND_ACCEPTOR>
14

> <PUBCHEM_CACTVS_HBOND_DONOR>
7

> <PUBCHEM_CACTVS_ROTATABLE_BOND>
10

> <PUBCHEM_CACTVS_SUBSKEYS>
AAADcfB8PAAAAAAAAAAAAAAAAAAAAAAAAAA0YMGCAAAAAADAAAAAGgAACAAADxSwgAMCCAAABgCIAiDSCAIAAAAgAAAACAFAAEgRFBYAIQQiUAAFoAAPIYPK7PxPgAAAAAAAAADAAAYAADCAAAAAAAAAAA==

> <PUBCHEM_IUPAC_OPENEYE_NAME>
(2S,3S,4S,5R,6R)-6-[[(3S,4R,4aR,6aR,6bS,8S,8aR,9R,10R,12aS,14aR,14bR)-8a-(acetoxymethyl)-8,9-dihydroxy-4-(hydroxymethyl)-4,6a,6b,11,11,14b-hexamethyl-10-[(E)-2-methylbut-2-enoyl]oxy-1,2,3,4a,5,6,7,8,9,10,12,12a,14,14a-tetradecahydropicen-3-yl]oxy]-3,4,5-trihydroxy-tetrahydropyran-2-carboxylic acid

> <PUBCHEM_IUPAC_CAS_NAME>
(2S,3S,4S,5R,6R)-6-[[(3S,4R,4aR,6aR,6bS,8S,8aR,9R,10R,12aS,14aR,14bR)-8a-(acetyloxymethyl)-8,9-dihydroxy-4-(hydroxymethyl)-4,6a,6b,11,11,14b-hexamethyl-10-[(E)-2-methyl-1-oxobut-2-enoxy]-1,2,3,4a,5,6,7,8,9,10,12,12a,14,14a-tetradecahydropicen-3-yl]oxy]-3,4,5-trihydroxy-2-oxanecarboxylic acid

> <PUBCHEM_IUPAC_NAME_MARKUP>
(2<I>S</I>,3<I>S</I>,4<I>S</I>,5<I>R</I>,6<I>R</I>)-6-[[(3<I>S</I>,4<I>R</I>,4<I>a</I><I>R</I>,6<I>a</I><I>R</I>,6<I>b</I><I>S</I>,8<I>S</I>,8<I>a</I><I>R</I>,9<I>R</I>,10<I>R</I>,12<I>a</I><I>S</I>,14<I>a</I><I>R</I>,14<I>b</I><I>R</I>)-8<I>a</I>-(acetyloxymethyl)-8,9-dihydroxy-4-(hydroxymethyl)-4,6<I>a</I>,6<I>b</I>,11,11,14<I>b</I>-hexamethyl-10-[(<I>E</I>)-2-methylbut-2-enoyl]oxy-1,2,3,4<I>a</I>,5,6,7,8,9,10,12,12<I>a</I>,14,14<I>a</I>-tetradecahydropicen-3-yl]oxy]-3,4,5-trihydroxyoxane-2-carboxylic acid

> <PUBCHEM_IUPAC_NAME>
(2S,3S,4S,5R,6R)-6-[[(3S,4R,4aR,6aR,6bS,8S,8aR,9R,10R,12aS,14aR,14bR)-8a-(acetyloxymethyl)-8,9-dihydroxy-4-(hydroxymethyl)-4,6a,6b,11,11,14b-hexamethyl-10-[(E)-2-methylbut-2-enoyl]oxy-1,2,3,4a,5,6,7,8,9,10,12,12a,14,14a-tetradecahydropicen-3-yl]oxy]-3,4,5-trihydroxyoxane-2-carboxylic acid

> <PUBCHEM_IUPAC_SYSTEMATIC_NAME>
(2S,3S,4S,5R,6R)-6-[[(3S,4R,4aR,6aR,6bS,8S,8aR,9R,10R,12aS,14aR,14bR)-8a-(acetyloxymethyl)-4-(hydroxymethyl)-4,6a,6b,11,11,14b-hexamethyl-10-[(E)-2-methylbut-2-enoyl]oxy-8,9-bis(oxidanyl)-1,2,3,4a,5,6,7,8,9,10,12,12a,14,14a-tetradecahydropicen-3-yl]oxy]-3,4,5-tris(oxidanyl)oxane-2-carboxylic acid

> <PUBCHEM_IUPAC_TRADITIONAL_NAME>
(2S,3S,4S,5R,6R)-6-[[(3S,4R,4aR,6aR,6bS,8S,8aR,9R,10R,12aS,14aR,14bR)-8a-(acetoxymethyl)-8,9-dihydroxy-4,6a,6b,11,11,14b-hexamethyl-10-[(E)-2-methylbut-2-enoyl]oxy-4-methylol-1,2,3,4a,5,6,7,8,9,10,12,12a,14,14a-tetradecahydropicen-3-yl]oxy]-3,4,5-trihydroxy-tetrahydropyran-2-carboxylic acid

> <PUBCHEM_IUPAC_INCHI>
InChI=1S/C43H66O14/c1-10-21(2)36(53)57-34-33(50)43(20-54-22(3)45)24(17-38(34,4)5)23-11-12-26-39(6)15-14-28(55-37-31(49)29(47)30(48)32(56-37)35(51)52)40(7,19-44)25(39)13-16-41(26,8)42(23,9)18-27(43)46/h10-11,24-34,37,44,46-50H,12-20H2,1-9H3,(H,51,52)/b21-10+/t24-,25+,26+,27-,28-,29-,30-,31+,32-,33-,34-,37+,39-,40-,41+,42+,43-/m0/s1

> <PUBCHEM_IUPAC_INCHIKEY>
VEFSVJGWJQPWFS-ZXKKMYOJSA-N

> <PUBCHEM_XLOGP3_AA>
3.9

> <PUBCHEM_EXACT_MASS>
806.44525677

> <PUBCHEM_MOLECULAR_FORMULA>
C43H66O14

> <PUBCHEM_MOLECULAR_WEIGHT>
807.0

> <PUBCHEM_OPENEYE_CAN_SMILES>
CC=C(C)C(=O)OC1C(C2(C(CC1(C)C)C3=CCC4C5(CCC(C(C5CCC4(C3(CC2O)C)C)(C)CO)OC6C(C(C(C(O6)C(=O)O)O)O)O)C)COC(=O)C)O

> <PUBCHEM_OPENEYE_ISO_SMILES>
C/C=C(\C)/C(=O)O[C@H]1[C@@H]([C@@]2([C@H](C[C@@]3(C(=CC[C@H]4[C@]3(CC[C@@H]5[C@@]4(CC[C@@H]([C@@]5(C)CO)O[C@H]6[C@@H]([C@H]([C@@H]([C@H](O6)C(=O)O)O)O)O)C)C)[C@@H]2CC1(C)C)C)O)COC(=O)C)O

> <PUBCHEM_CACTVS_TPSA>
230

> <PUBCHEM_MONOISOTOPIC_WEIGHT>
806.44525677

> <PUBCHEM_TOTAL_CHARGE>
0

> <PUBCHEM_HEAVY_ATOM_COUNT>
57

> <PUBCHEM_ATOM_DEF_STEREO_COUNT>
17

> <PUBCHEM_ATOM_UDEF_STEREO_COUNT>
0

> <PUBCHEM_BOND_DEF_STEREO_COUNT>
1

> <PUBCHEM_BOND_UDEF_STEREO_COUNT>
0

> <PUBCHEM_ISOTOPIC_ATOM_COUNT>
0

> <PUBCHEM_COMPONENT_COUNT>
1

> <PUBCHEM_CACTVS_TAUTO_COUNT>
1

> <PUBCHEM_COORDINATE_TYPE>
1
5
255

> <PUBCHEM_BONDANNOTATIONS>
29  1  5
49  11  5
51  12  6
15  30  5
16  58  6
17  33  5
18  35  6
19  59  6
31  2  5
45  2  5
22  62  5
23  40  5
25  42  5
37  3  6
39  4  5
50  54  5
46  8  6

$$$$
