21636078
  -OEChem-01112202182D

144151  0     1  0  0  0  0  0999 V2000
   20.7164    2.2479    0.0000 O   0  0  0  0  0  0  0  0  0  0  0  0
   19.0556   -0.2547    0.0000 O   0  0  0  0  0  0  0  0  0  0  0  0
   12.9292    0.2584    0.0000 O   0  0  0  0  0  0  0  0  0  0  0  0
   13.7953    1.7584    0.0000 O   0  0  0  0  0  0  0  0  0  0  0  0
   21.6628   -0.7125    0.0000 O   0  0  0  0  0  0  0  0  0  0  0  0
   22.0460    0.9766    0.0000 O   0  0  0  0  0  0  0  0  0  0  0  0
   11.1972    0.2584    0.0000 O   0  0  0  0  0  0  0  0  0  0  0  0
   12.9292    2.2584    0.0000 O   0  0  0  0  0  0  0  0  0  0  0  0
   11.1972    3.2584    0.0000 O   0  0  0  0  0  0  0  0  0  0  0  0
    9.4651    2.2584    0.0000 O   0  0  0  0  0  0  0  0  0  0  0  0
    9.4651   -0.7416    0.0000 O   0  0  0  0  0  0  0  0  0  0  0  0
    7.7331   -0.7416    0.0000 O   0  0  0  0  0  0  0  0  0  0  0  0
    9.4651   -2.7416    0.0000 O   0  0  0  0  0  0  0  0  0  0  0  0
    7.7331   -3.7416    0.0000 O   0  0  0  0  0  0  0  0  0  0  0  0
    6.0010   -2.7416    0.0000 O   0  0  0  0  0  0  0  0  0  0  0  0
    6.0010    0.2584    0.0000 O   0  0  0  0  0  0  0  0  0  0  0  0
    5.1350   -1.2416    0.0000 O   0  0  0  0  0  0  0  0  0  0  0  0
    4.2690   -3.7416    0.0000 O   0  0  0  0  0  0  0  0  0  0  0  0
    2.5369   -2.7416    0.0000 O   0  0  0  0  0  0  0  0  0  0  0  0
    2.5369   -0.7416    0.0000 O   0  0  0  0  0  0  0  0  0  0  0  0
   17.3390    1.7586    0.0000 C   0  0  1  0  0  0  0  0  0  0  0  0
   16.4691    1.2653    0.0000 C   0  0  1  0  0  0  0  0  0  0  0  0
   18.2011    1.2519    0.0000 C   0  0  1  0  0  0  0  0  0  0  0  0
   16.4614    0.2653    0.0000 C   0  0  1  0  0  0  0  0  0  0  0  0
   19.1150    1.7517    0.0000 C   0  0  2  0  0  0  0  0  0  0  0  0
   15.5634   -0.2625    0.0000 C   0  0  2  0  0  0  0  0  0  0  0  0
   19.1311    2.7932    0.0000 C   0  0  1  0  0  0  0  0  0  0  0  0
   14.6613    0.2584    0.0000 C   0  0  1  0  0  0  0  0  0  0  0  0
   18.1934    0.2519    0.0000 C   0  0  1  0  0  0  0  0  0  0  0  0
   17.3309    2.8002    0.0000 C   0  0  0  0  0  0  0  0  0  0  0  0
   17.3236   -0.2414    0.0000 C   0  0  0  0  0  0  0  0  0  0  0  0
   15.5793    1.8068    0.0000 C   0  0  0  0  0  0  0  0  0  0  0  0
   18.2330    3.3210    0.0000 C   0  0  0  0  0  0  0  0  0  0  0  0
   14.6693    1.3000    0.0000 C   0  0  0  0  0  0  0  0  0  0  0  0
   20.0956    1.4192    0.0000 C   0  0  1  0  0  0  0  0  0  0  0  0
   15.3455   -1.2747    0.0000 C   0  0  1  0  0  0  0  0  0  0  0  0
   20.1214    3.0954    0.0000 C   0  0  0  0  0  0  0  0  0  0  0  0
   16.7021    2.5296    0.0000 C   0  0  0  0  0  0  0  0  0  0  0  0
   16.1343    2.2076    0.0000 C   0  0  0  0  0  0  0  0  0  0  0  0
   13.8936   -0.4365    0.0000 C   0  0  0  0  0  0  0  0  0  0  0  0
   19.0996    0.7519    0.0000 C   0  0  0  0  0  0  0  0  0  0  0  0
   14.3156   -1.3821    0.0000 C   0  0  0  0  0  0  0  0  0  0  0  0
   13.7953    0.7584    0.0000 C   0  0  0  0  0  0  0  0  0  0  0  0
   20.3916    0.4640    0.0000 C   0  0  0  0  0  0  0  0  0  0  0  0
   20.9404    3.6692    0.0000 C   0  0  0  0  0  0  0  0  0  0  0  0
   19.8288    4.0516    0.0000 C   0  0  0  0  0  0  0  0  0  0  0  0
   16.0133   -2.0190    0.0000 C   0  0  0  0  0  0  0  0  0  0  0  0
   15.7026   -2.9696    0.0000 C   0  0  0  0  0  0  0  0  0  0  0  0
   21.3668    0.2427    0.0000 C   0  0  0  0  0  0  0  0  0  0  0  0
   16.9918   -1.8128    0.0000 C   0  0  0  0  0  0  0  0  0  0  0  0
   12.0632    0.7584    0.0000 C   0  0  2  0  0  0  0  0  0  0  0  0
   12.0632    1.7584    0.0000 C   0  0  1  0  0  0  0  0  0  0  0  0
   11.1972    2.2584    0.0000 C   0  0  2  0  0  0  0  0  0  0  0  0
   10.3312    0.7584    0.0000 C   0  0  1  0  0  0  0  0  0  0  0  0
   10.3312    1.7584    0.0000 C   0  0  1  0  0  0  0  0  0  0  0  0
    9.4651    0.2584    0.0000 C   0  0  0  0  0  0  0  0  0  0  0  0
    8.5991   -1.2416    0.0000 C   0  0  2  0  0  0  0  0  0  0  0  0
    8.5991   -2.2416    0.0000 C   0  0  1  0  0  0  0  0  0  0  0  0
    7.7331   -2.7416    0.0000 C   0  0  2  0  0  0  0  0  0  0  0  0
    6.8671   -1.2416    0.0000 C   0  0  1  0  0  0  0  0  0  0  0  0
    6.8671   -2.2416    0.0000 C   0  0  1  0  0  0  0  0  0  0  0  0
    6.0010   -0.7416    0.0000 C   0  0  0  0  0  0  0  0  0  0  0  0
    5.1350   -2.2416    0.0000 C   0  0  2  0  0  0  0  0  0  0  0  0
    4.2690   -2.7416    0.0000 C   0  0  1  0  0  0  0  0  0  0  0  0
    3.4030   -2.2416    0.0000 C   0  0  1  0  0  0  0  0  0  0  0  0
    4.2690   -0.7416    0.0000 C   0  0  2  0  0  0  0  0  0  0  0  0
    3.4030   -1.2416    0.0000 C   0  0  2  0  0  0  0  0  0  0  0  0
    4.2690    0.2584    0.0000 C   0  0  0  0  0  0  0  0  0  0  0  0
   18.9306    0.8156    0.0000 H   0  0  0  0  0  0  0  0  0  0  0  0
   16.4614   -0.5847    0.0000 H   0  0  0  0  0  0  0  0  0  0  0  0
   16.2523   -0.7603    0.0000 H   0  0  0  0  0  0  0  0  0  0  0  0
   19.2308    3.6374    0.0000 H   0  0  0  0  0  0  0  0  0  0  0  0
   18.7327    0.5578    0.0000 H   0  0  0  0  0  0  0  0  0  0  0  0
   17.1174    3.3822    0.0000 H   0  0  0  0  0  0  0  0  0  0  0  0
   16.7209    2.6894    0.0000 H   0  0  0  0  0  0  0  0  0  0  0  0
   16.9214   -0.7132    0.0000 H   0  0  0  0  0  0  0  0  0  0  0  0
   17.7184   -0.7194    0.0000 H   0  0  0  0  0  0  0  0  0  0  0  0
   15.9875    2.2735    0.0000 H   0  0  0  0  0  0  0  0  0  0  0  0
   15.1894    2.2888    0.0000 H   0  0  0  0  0  0  0  0  0  0  0  0
   18.6340    3.7939    0.0000 H   0  0  0  0  0  0  0  0  0  0  0  0
   17.8357    3.7970    0.0000 H   0  0  0  0  0  0  0  0  0  0  0  0
   14.4648    1.8852    0.0000 H   0  0  0  0  0  0  0  0  0  0  0  0
   14.0577    1.1986    0.0000 H   0  0  0  0  0  0  0  0  0  0  0  0
   20.7065    1.3135    0.0000 H   0  0  0  0  0  0  0  0  0  0  0  0
   15.9447   -1.1156    0.0000 H   0  0  0  0  0  0  0  0  0  0  0  0
   17.1801    2.9244    0.0000 H   0  0  0  0  0  0  0  0  0  0  0  0
   16.3073    3.0076    0.0000 H   0  0  0  0  0  0  0  0  0  0  0  0
   16.2241    2.1347    0.0000 H   0  0  0  0  0  0  0  0  0  0  0  0
   16.7186    2.4151    0.0000 H   0  0  0  0  0  0  0  0  0  0  0  0
   15.9268    2.7918    0.0000 H   0  0  0  0  0  0  0  0  0  0  0  0
   15.5501    2.0000    0.0000 H   0  0  0  0  0  0  0  0  0  0  0  0
   13.5282    0.0644    0.0000 H   0  0  0  0  0  0  0  0  0  0  0  0
   13.3571   -0.7473    0.0000 H   0  0  0  0  0  0  0  0  0  0  0  0
   18.4797    0.7614    0.0000 H   0  0  0  0  0  0  0  0  0  0  0  0
   19.0900    0.1319    0.0000 H   0  0  0  0  0  0  0  0  0  0  0  0
   19.7195    0.7423    0.0000 H   0  0  0  0  0  0  0  0  0  0  0  0
   13.7260   -1.5738    0.0000 H   0  0  0  0  0  0  0  0  0  0  0  0
   14.4443   -1.9886    0.0000 H   0  0  0  0  0  0  0  0  0  0  0  0
   19.7765    0.3861    0.0000 H   0  0  0  0  0  0  0  0  0  0  0  0
   20.3615   -0.1553    0.0000 H   0  0  0  0  0  0  0  0  0  0  0  0
   19.0508   -0.8747    0.0000 H   0  0  0  0  0  0  0  0  0  0  0  0
   21.2962    3.1615    0.0000 H   0  0  0  0  0  0  0  0  0  0  0  0
   21.4482    4.0250    0.0000 H   0  0  0  0  0  0  0  0  0  0  0  0
   20.5847    4.1770    0.0000 H   0  0  0  0  0  0  0  0  0  0  0  0
   20.4216    4.2331    0.0000 H   0  0  0  0  0  0  0  0  0  0  0  0
   19.6473    4.6445    0.0000 H   0  0  0  0  0  0  0  0  0  0  0  0
   19.2359    3.8702    0.0000 H   0  0  0  0  0  0  0  0  0  0  0  0
   15.1133   -2.7769    0.0000 H   0  0  0  0  0  0  0  0  0  0  0  0
   15.5100   -3.5589    0.0000 H   0  0  0  0  0  0  0  0  0  0  0  0
   16.2920   -3.1622    0.0000 H   0  0  0  0  0  0  0  0  0  0  0  0
   17.4059   -2.2743    0.0000 H   0  0  0  0  0  0  0  0  0  0  0  0
   17.1844   -1.2235    0.0000 H   0  0  0  0  0  0  0  0  0  0  0  0
   12.6002    1.0684    0.0000 H   0  0  0  0  0  0  0  0  0  0  0  0
   22.2674   -0.8497    0.0000 H   0  0  0  0  0  0  0  0  0  0  0  0
   12.0632    2.3784    0.0000 H   0  0  0  0  0  0  0  0  0  0  0  0
   10.6603    2.5684    0.0000 H   0  0  0  0  0  0  0  0  0  0  0  0
   10.3312    0.1384    0.0000 H   0  0  0  0  0  0  0  0  0  0  0  0
   10.3312    2.3784    0.0000 H   0  0  0  0  0  0  0  0  0  0  0  0
   12.9292    2.8784    0.0000 H   0  0  0  0  0  0  0  0  0  0  0  0
    9.2531    0.8410    0.0000 H   0  0  0  0  0  0  0  0  0  0  0  0
    8.8546    0.1507    0.0000 H   0  0  0  0  0  0  0  0  0  0  0  0
   11.7341    3.5684    0.0000 H   0  0  0  0  0  0  0  0  0  0  0  0
    9.4651    2.8784    0.0000 H   0  0  0  0  0  0  0  0  0  0  0  0
    8.5991   -0.6216    0.0000 H   0  0  0  0  0  0  0  0  0  0  0  0
    8.5991   -2.8616    0.0000 H   0  0  0  0  0  0  0  0  0  0  0  0
    7.1962   -3.0516    0.0000 H   0  0  0  0  0  0  0  0  0  0  0  0
    6.8671   -0.6216    0.0000 H   0  0  0  0  0  0  0  0  0  0  0  0
    6.3301   -1.9316    0.0000 H   0  0  0  0  0  0  0  0  0  0  0  0
   10.0021   -2.4316    0.0000 H   0  0  0  0  0  0  0  0  0  0  0  0
    5.3905   -0.6340    0.0000 H   0  0  0  0  0  0  0  0  0  0  0  0
    5.7890   -1.3242    0.0000 H   0  0  0  0  0  0  0  0  0  0  0  0
    8.2700   -4.0516    0.0000 H   0  0  0  0  0  0  0  0  0  0  0  0
    5.1350   -2.8616    0.0000 H   0  0  0  0  0  0  0  0  0  0  0  0
    6.5380    0.5684    0.0000 H   0  0  0  0  0  0  0  0  0  0  0  0
    3.7320   -3.0516    0.0000 H   0  0  0  0  0  0  0  0  0  0  0  0
    2.8660   -1.9316    0.0000 H   0  0  0  0  0  0  0  0  0  0  0  0
    4.8059   -0.4316    0.0000 H   0  0  0  0  0  0  0  0  0  0  0  0
    3.4030   -0.6216    0.0000 H   0  0  0  0  0  0  0  0  0  0  0  0
    3.7320   -4.0516    0.0000 H   0  0  0  0  0  0  0  0  0  0  0  0
    4.8890    0.2584    0.0000 H   0  0  0  0  0  0  0  0  0  0  0  0
    4.2690    0.8784    0.0000 H   0  0  0  0  0  0  0  0  0  0  0  0
    3.6490    0.2584    0.0000 H   0  0  0  0  0  0  0  0  0  0  0  0
    2.0000   -2.4316    0.0000 H   0  0  0  0  0  0  0  0  0  0  0  0
    2.5369   -0.1216    0.0000 H   0  0  0  0  0  0  0  0  0  0  0  0
  1 35  1  0  0  0  0
  1 37  1  0  0  0  0
 29  2  1  6  0  0  0
  2101  1  0  0  0  0
  3 43  1  0  0  0  0
 51  3  1  6  0  0  0
  4 43  2  0  0  0  0
  5 49  1  0  0  0  0
  5114  1  0  0  0  0
  6 49  2  0  0  0  0
  7 51  1  0  0  0  0
  7 54  1  0  0  0  0
 52  8  1  1  0  0  0
  8119  1  0  0  0  0
 53  9  1  6  0  0  0
  9122  1  0  0  0  0
 55 10  1  1  0  0  0
 10123  1  0  0  0  0
 11 56  1  0  0  0  0
 57 11  1  1  0  0  0
 12 57  1  0  0  0  0
 12 60  1  0  0  0  0
 58 13  1  6  0  0  0
 13129  1  0  0  0  0
 59 14  1  1  0  0  0
 14132  1  0  0  0  0
 61 15  1  6  0  0  0
 63 15  1  1  0  0  0
 16 62  1  0  0  0  0
 16134  1  0  0  0  0
 17 63  1  0  0  0  0
 17 66  1  0  0  0  0
 64 18  1  6  0  0  0
 18139  1  0  0  0  0
 65 19  1  6  0  0  0
 19143  1  0  0  0  0
 67 20  1  1  0  0  0
 20144  1  0  0  0  0
 21 22  1  0  0  0  0
 21 23  1  0  0  0  0
 21 30  1  0  0  0  0
 21 38  1  1  0  0  0
 22 24  1  0  0  0  0
 22 32  1  0  0  0  0
 22 39  1  6  0  0  0
 23 25  1  0  0  0  0
 23 29  1  0  0  0  0
 23 69  1  6  0  0  0
 24 26  1  0  0  0  0
 24 31  1  0  0  0  0
 24 70  1  1  0  0  0
 25 27  1  0  0  0  0
 25 35  1  0  0  0  0
 25 41  1  1  0  0  0
 26 28  1  0  0  0  0
 26 36  1  0  0  0  0
 26 71  1  6  0  0  0
 27 33  1  0  0  0  0
 27 37  1  0  0  0  0
 27 72  1  6  0  0  0
 28 34  1  0  0  0  0
 28 40  1  0  0  0  0
 28 43  1  1  0  0  0
 29 31  1  0  0  0  0
 29 73  1  0  0  0  0
 30 33  1  0  0  0  0
 30 74  1  0  0  0  0
 30 75  1  0  0  0  0
 31 76  1  0  0  0  0
 31 77  1  0  0  0  0
 32 34  1  0  0  0  0
 32 78  1  0  0  0  0
 32 79  1  0  0  0  0
 33 80  1  0  0  0  0
 33 81  1  0  0  0  0
 34 82  1  0  0  0  0
 34 83  1  0  0  0  0
 35 44  1  6  0  0  0
 35 84  1  0  0  0  0
 36 42  1  0  0  0  0
 36 47  1  6  0  0  0
 36 85  1  0  0  0  0
 37 45  1  0  0  0  0
 37 46  1  0  0  0  0
 38 86  1  0  0  0  0
 38 87  1  0  0  0  0
 38 88  1  0  0  0  0
 39 89  1  0  0  0  0
 39 90  1  0  0  0  0
 39 91  1  0  0  0  0
 40 42  1  0  0  0  0
 40 92  1  0  0  0  0
 40 93  1  0  0  0  0
 41 94  1  0  0  0  0
 41 95  1  0  0  0  0
 41 96  1  0  0  0  0
 42 97  1  0  0  0  0
 42 98  1  0  0  0  0
 44 49  1  0  0  0  0
 44 99  1  0  0  0  0
 44100  1  0  0  0  0
 45102  1  0  0  0  0
 45103  1  0  0  0  0
 45104  1  0  0  0  0
 46105  1  0  0  0  0
 46106  1  0  0  0  0
 46107  1  0  0  0  0
 47 48  1  0  0  0  0
 47 50  2  0  0  0  0
 48108  1  0  0  0  0
 48109  1  0  0  0  0
 48110  1  0  0  0  0
 50111  1  0  0  0  0
 50112  1  0  0  0  0
 51 52  1  0  0  0  0
 51113  1  0  0  0  0
 52 53  1  0  0  0  0
 52115  1  0  0  0  0
 53 55  1  0  0  0  0
 53116  1  0  0  0  0
 54 55  1  0  0  0  0
 54 56  1  6  0  0  0
 54117  1  0  0  0  0
 55118  1  0  0  0  0
 56120  1  0  0  0  0
 56121  1  0  0  0  0
 57 58  1  0  0  0  0
 57124  1  0  0  0  0
 58 59  1  0  0  0  0
 58125  1  0  0  0  0
 59 61  1  0  0  0  0
 59126  1  0  0  0  0
 60 61  1  0  0  0  0
 60 62  1  1  0  0  0
 60127  1  0  0  0  0
 61128  1  0  0  0  0
 62130  1  0  0  0  0
 62131  1  0  0  0  0
 63 64  1  0  0  0  0
 63133  1  0  0  0  0
 64 65  1  0  0  0  0
 64135  1  0  0  0  0
 65 67  1  0  0  0  0
 65136  1  0  0  0  0
 66 67  1  0  0  0  0
 66 68  1  6  0  0  0
 66137  1  0  0  0  0
 67138  1  0  0  0  0
 68140  1  0  0  0  0
 68141  1  0  0  0  0
 68142  1  0  0  0  0
M  END
> <PUBCHEM_COMPOUND_CID>
21636078

> <PUBCHEM_COMPOUND_CANONICALIZED>
1

> <PUBCHEM_CACTVS_COMPLEXITY>
1890

> <PUBCHEM_CACTVS_HBOND_ACCEPTOR>
20

> <PUBCHEM_CACTVS_HBOND_DONOR>
11

> <PUBCHEM_CACTVS_ROTATABLE_BOND>
12

> <PUBCHEM_CACTVS_SUBSKEYS>
AAADcfB8PgAAAAAAAAAAAAAAAAAAAaIAAAA0aNECAAAAAGjAAAAAGgAACAAAD1SwgAMCCAAABgCIAgDSCAAAAAAgAAAAAAEAAAgREBYAAQAiQAAFoAAHAAHI6PyPgAAAAAAAAADAAAYAADAAAQAACAAAAA==

> <PUBCHEM_IUPAC_OPENEYE_NAME>
2-[(1R,2R,5R,8R,9R,10S,11R,13R,14R,15R,18S)-18-[(2S,3R,4S,5S,6R)-6-[[(2R,3R,4R,5S,6R)-3,4-dihydroxy-6-(hydroxymethyl)-5-[(2S,3R,4R,5R,6S)-3,4,5-trihydroxy-6-methyl-tetrahydropyran-2-yl]oxy-tetrahydropyran-2-yl]oxymethyl]-3,4,5-trihydroxy-tetrahydropyran-2-yl]oxycarbonyl-11-hydroxy-15-isopropenyl-1,2,6,6,9-pentamethyl-7-oxapentacyclo[11.7.0.02,10.05,9.014,18]icosan-8-yl]acetic acid

> <PUBCHEM_IUPAC_CAS_NAME>
2-[(1R,2R,5R,8R,9R,10S,11R,13R,14R,15R,18S)-18-[[(2S,3R,4S,5S,6R)-6-[[(2R,3R,4R,5S,6R)-3,4-dihydroxy-6-(hydroxymethyl)-5-[[(2S,3R,4R,5R,6S)-3,4,5-trihydroxy-6-methyl-2-oxanyl]oxy]-2-oxanyl]oxymethyl]-3,4,5-trihydroxy-2-oxanyl]oxy-oxomethyl]-11-hydroxy-1,2,6,6,9-pentamethyl-15-(1-methylethenyl)-7-oxapentacyclo[11.7.0.02,10.05,9.014,18]eicosan-8-yl]acetic acid

> <PUBCHEM_IUPAC_NAME_MARKUP>
2-[(1<I>R</I>,2<I>R</I>,5<I>R</I>,8<I>R</I>,9<I>R</I>,10<I>S</I>,11<I>R</I>,13<I>R</I>,14<I>R</I>,15<I>R</I>,18<I>S</I>)-18-[(2<I>S</I>,3<I>R</I>,4<I>S</I>,5<I>S</I>,6<I>R</I>)-6-[[(2<I>R</I>,3<I>R</I>,4<I>R</I>,5<I>S</I>,6<I>R</I>)-3,4-dihydroxy-6-(hydroxymethyl)-5-[(2<I>S</I>,3<I>R</I>,4<I>R</I>,5<I>R</I>,6<I>S</I>)-3,4,5-trihydroxy-6-methyloxan-2-yl]oxyoxan-2-yl]oxymethyl]-3,4,5-trihydroxyoxan-2-yl]oxycarbonyl-11-hydroxy-1,2,6,6,9-pentamethyl-15-prop-1-en-2-yl-7-oxapentacyclo[11.7.0.0<SUP>2,10</SUP>.0<SUP>5,9</SUP>.0<SUP>14,18</SUP>]icosan-8-yl]acetic acid

> <PUBCHEM_IUPAC_NAME>
2-[(1R,2R,5R,8R,9R,10S,11R,13R,14R,15R,18S)-18-[(2S,3R,4S,5S,6R)-6-[[(2R,3R,4R,5S,6R)-3,4-dihydroxy-6-(hydroxymethyl)-5-[(2S,3R,4R,5R,6S)-3,4,5-trihydroxy-6-methyloxan-2-yl]oxyoxan-2-yl]oxymethyl]-3,4,5-trihydroxyoxan-2-yl]oxycarbonyl-11-hydroxy-1,2,6,6,9-pentamethyl-15-prop-1-en-2-yl-7-oxapentacyclo[11.7.0.02,10.05,9.014,18]icosan-8-yl]acetic acid

> <PUBCHEM_IUPAC_SYSTEMATIC_NAME>
2-[(1R,2R,5R,8R,9R,10S,11R,13R,14R,15R,18S)-18-[(2S,3R,4S,5S,6R)-6-[[(2R,3R,4R,5S,6R)-6-(hydroxymethyl)-5-[(2S,3R,4R,5R,6S)-6-methyl-3,4,5-tris(oxidanyl)oxan-2-yl]oxy-3,4-bis(oxidanyl)oxan-2-yl]oxymethyl]-3,4,5-tris(oxidanyl)oxan-2-yl]oxycarbonyl-1,2,6,6,9-pentamethyl-11-oxidanyl-15-prop-1-en-2-yl-7-oxapentacyclo[11.7.0.02,10.05,9.014,18]icosan-8-yl]ethanoic acid

> <PUBCHEM_IUPAC_TRADITIONAL_NAME>
2-[(1R,2R,5R,8R,9R,10S,11R,13R,14R,15R,18S)-18-[(2S,3R,4S,5S,6R)-6-[[(2R,3R,4R,5S,6R)-3,4-dihydroxy-6-methylol-5-[(2S,3R,4R,5R,6S)-3,4,5-trihydroxy-6-methyl-tetrahydropyran-2-yl]oxy-tetrahydropyran-2-yl]oxymethyl]-3,4,5-trihydroxy-tetrahydropyran-2-yl]oxycarbonyl-11-hydroxy-15-isopropenyl-1,2,6,6,9-pentamethyl-7-oxapentacyclo[11.7.0.02,10.05,9.014,18]eicosan-8-yl]acetic acid

> <PUBCHEM_IUPAC_INCHI>
InChI=1S/C48H76O20/c1-19(2)21-9-12-48(14-13-45(6)22(29(21)48)15-23(50)39-46(45,7)11-10-26-44(4,5)68-27(16-28(51)52)47(26,39)8)43(61)67-42-36(59)33(56)31(54)25(65-42)18-62-40-37(60)34(57)38(24(17-49)64-40)66-41-35(58)32(55)30(53)20(3)63-41/h20-27,29-42,49-50,53-60H,1,9-18H2,2-8H3,(H,51,52)/t20-,21-,22+,23+,24+,25+,26-,27+,29+,30-,31+,32+,33-,34+,35+,36+,37+,38+,39-,40+,41-,42-,45+,46+,47+,48-/m0/s1

> <PUBCHEM_IUPAC_INCHIKEY>
DEXFQQWSJHKUIA-VELBUPAJSA-N

> <PUBCHEM_XLOGP3_AA>
-0.2

> <PUBCHEM_EXACT_MASS>
972.49299481

> <PUBCHEM_MOLECULAR_FORMULA>
C48H76O20

> <PUBCHEM_MOLECULAR_WEIGHT>
973.1

> <PUBCHEM_OPENEYE_CAN_SMILES>
CC1C(C(C(C(O1)OC2C(OC(C(C2O)O)OCC3C(C(C(C(O3)OC(=O)C45CCC(C4C6CC(C7C(C6(CC5)C)(CCC8C7(C(OC8(C)C)CC(=O)O)C)C)O)C(=C)C)O)O)O)CO)O)O)O

> <PUBCHEM_OPENEYE_ISO_SMILES>
C[C@H]1[C@@H]([C@H]([C@H]([C@@H](O1)O[C@@H]2[C@H](O[C@H]([C@@H]([C@H]2O)O)OC[C@@H]3[C@H]([C@@H]([C@H]([C@@H](O3)OC(=O)[C@]45CC[C@H]([C@@H]4[C@H]6C[C@H]([C@H]7[C@]([C@@]6(CC5)C)(CC[C@@H]8[C@@]7([C@H](OC8(C)C)CC(=O)O)C)C)O)C(=C)C)O)O)O)CO)O)O)O

> <PUBCHEM_CACTVS_TPSA>
321

> <PUBCHEM_MONOISOTOPIC_WEIGHT>
972.49299481

> <PUBCHEM_TOTAL_CHARGE>
0

> <PUBCHEM_HEAVY_ATOM_COUNT>
68

> <PUBCHEM_ATOM_DEF_STEREO_COUNT>
26

> <PUBCHEM_ATOM_UDEF_STEREO_COUNT>
0

> <PUBCHEM_BOND_DEF_STEREO_COUNT>
0

> <PUBCHEM_BOND_UDEF_STEREO_COUNT>
0

> <PUBCHEM_ISOTOPIC_ATOM_COUNT>
0

> <PUBCHEM_COMPONENT_COUNT>
1

> <PUBCHEM_CACTVS_TAUTO_COUNT>
-1

> <PUBCHEM_COORDINATE_TYPE>
1
5
255

> <PUBCHEM_BONDANNOTATIONS>
55  10  5
57  11  5
58  13  6
59  14  5
61  15  6
63  15  5
64  18  6
65  19  6
29  2  6
67  20  5
21  38  5
22  39  6
23  69  6
24  70  5
25  41  5
26  71  6
27  72  6
28  43  5
51  3  6
35  44  6
36  47  6
54  56  6
60  62  5
66  68  6
52  8  5
53  9  6

$$$$
