9548665
  -OEChem-01212203302D

 84 87  0     1  0  0  0  0  0999 V2000
    6.5251   -1.1735    0.0000 C   0  0  2  0  0  0  0  0  0  0  0  0
    6.5251   -0.1735    0.0000 C   0  0  1  0  0  0  0  0  0  0  0  0
    5.6591   -1.6735    0.0000 C   0  0  1  0  0  0  0  0  0  0  0  0
    4.7931   -1.1735    0.0000 C   0  0  1  0  0  0  0  0  0  0  0  0
    3.8831   -1.6803    0.0000 C   0  0  2  0  0  0  0  0  0  0  0  0
    7.4714    0.1313    0.0000 C   0  0  2  0  0  0  0  0  0  0  0  0
    3.8751   -2.7219    0.0000 C   0  0  1  0  0  0  0  0  0  0  0  0
    5.6591    0.3265    0.0000 C   0  0  0  0  0  0  0  0  0  0  0  0
    7.4714   -1.4782    0.0000 C   0  0  0  0  0  0  0  0  0  0  0  0
    4.7931   -0.1735    0.0000 C   0  0  0  0  0  0  0  0  0  0  0  0
    5.6752   -2.7150    0.0000 C   0  0  0  0  0  0  0  0  0  0  0  0
    8.0550   -0.6735    0.0000 C   0  0  0  0  0  0  0  0  0  0  0  0
    4.7771   -3.2427    0.0000 C   0  0  0  0  0  0  0  0  0  0  0  0
    2.9396   -3.2716    0.0000 C   0  0  0  0  0  0  0  0  0  0  0  0
    2.9562   -1.1162    0.0000 C   0  0  0  0  0  0  0  0  0  0  0  0
    6.5251   -2.1735    0.0000 C   0  0  0  0  0  0  0  0  0  0  0  0
    6.5251    0.8265    0.0000 C   0  0  0  0  0  0  0  0  0  0  0  0
    7.7820    1.0818    0.0000 C   0  0  1  0  0  0  0  0  0  0  0  0
    3.8908   -0.6803    0.0000 C   0  0  0  0  0  0  0  0  0  0  0  0
    2.0000   -2.7291    0.0000 C   0  0  0  0  0  0  0  0  0  0  0  0
    2.0084   -1.6442    0.0000 C   0  0  0  0  0  0  0  0  0  0  0  0
    2.4430   -4.1396    0.0000 C   0  0  0  0  0  0  0  0  0  0  0  0
    3.4430   -4.1357    0.0000 C   0  0  0  0  0  0  0  0  0  0  0  0
    8.7605    1.2880    0.0000 C   0  0  0  0  0  0  0  0  0  0  0  0
    7.1142    1.8261    0.0000 C   0  0  0  0  0  0  0  0  0  0  0  0
    9.0712    2.2385    0.0000 C   0  0  0  0  0  0  0  0  0  0  0  0
   10.0497    2.4448    0.0000 C   0  0  0  0  0  0  0  0  0  0  0  0
   10.3604    3.3953    0.0000 C   0  0  0  0  0  0  0  0  0  0  0  0
   11.3389    3.6015    0.0000 C   0  0  0  0  0  0  0  0  0  0  0  0
    9.6925    4.1396    0.0000 C   0  0  0  0  0  0  0  0  0  0  0  0
    6.3985   -2.0928    0.0000 H   0  0  0  0  0  0  0  0  0  0  0  0
    5.5292   -0.7485    0.0000 H   0  0  0  0  0  0  0  0  0  0  0  0
    8.3111    0.2632    0.0000 H   0  0  0  0  0  0  0  0  0  0  0  0
    3.8783   -3.5719    0.0000 H   0  0  0  0  0  0  0  0  0  0  0  0
    6.0576    0.8015    0.0000 H   0  0  0  0  0  0  0  0  0  0  0  0
    5.2606    0.8015    0.0000 H   0  0  0  0  0  0  0  0  0  0  0  0
    7.2203   -2.0451    0.0000 H   0  0  0  0  0  0  0  0  0  0  0  0
    8.0087   -1.7874    0.0000 H   0  0  0  0  0  0  0  0  0  0  0  0
    4.5810    0.4092    0.0000 H   0  0  0  0  0  0  0  0  0  0  0  0
    4.1825   -0.2811    0.0000 H   0  0  0  0  0  0  0  0  0  0  0  0
    5.8932   -3.2954    0.0000 H   0  0  0  0  0  0  0  0  0  0  0  0
    6.2843   -2.5995    0.0000 H   0  0  0  0  0  0  0  0  0  0  0  0
    8.5158   -1.0882    0.0000 H   0  0  0  0  0  0  0  0  0  0  0  0
    8.5158   -0.2587    0.0000 H   0  0  0  0  0  0  0  0  0  0  0  0
    4.3798   -3.7187    0.0000 H   0  0  0  0  0  0  0  0  0  0  0  0
    5.1781   -3.7156    0.0000 H   0  0  0  0  0  0  0  0  0  0  0  0
    3.3645   -0.6496    0.0000 H   0  0  0  0  0  0  0  0  0  0  0  0
    2.5663   -0.6342    0.0000 H   0  0  0  0  0  0  0  0  0  0  0  0
    5.9051   -2.1735    0.0000 H   0  0  0  0  0  0  0  0  0  0  0  0
    6.5251   -2.7935    0.0000 H   0  0  0  0  0  0  0  0  0  0  0  0
    7.1451   -2.1735    0.0000 H   0  0  0  0  0  0  0  0  0  0  0  0
    7.1451    0.8265    0.0000 H   0  0  0  0  0  0  0  0  0  0  0  0
    6.5251    1.4465    0.0000 H   0  0  0  0  0  0  0  0  0  0  0  0
    5.9051    0.8265    0.0000 H   0  0  0  0  0  0  0  0  0  0  0  0
    7.9746    1.6711    0.0000 H   0  0  0  0  0  0  0  0  0  0  0  0
    4.5108   -0.6851    0.0000 H   0  0  0  0  0  0  0  0  0  0  0  0
    3.8956   -0.0604    0.0000 H   0  0  0  0  0  0  0  0  0  0  0  0
    3.2708   -0.6756    0.0000 H   0  0  0  0  0  0  0  0  0  0  0  0
    1.3900   -2.6183    0.0000 H   0  0  0  0  0  0  0  0  0  0  0  0
    1.7864   -3.3112    0.0000 H   0  0  0  0  0  0  0  0  0  0  0  0
    1.8038   -1.0589    0.0000 H   0  0  0  0  0  0  0  0  0  0  0  0
    1.3967   -1.7456    0.0000 H   0  0  0  0  0  0  0  0  0  0  0  0
    1.9048   -3.8316    0.0000 H   0  0  0  0  0  0  0  0  0  0  0  0
    2.1350   -4.6777    0.0000 H   0  0  0  0  0  0  0  0  0  0  0  0
    2.9811   -4.4475    0.0000 H   0  0  0  0  0  0  0  0  0  0  0  0
    2.9072   -4.4478    0.0000 H   0  0  0  0  0  0  0  0  0  0  0  0
    3.7550   -4.6715    0.0000 H   0  0  0  0  0  0  0  0  0  0  0  0
    3.9787   -3.8236    0.0000 H   0  0  0  0  0  0  0  0  0  0  0  0
    8.7811    0.6684    0.0000 H   0  0  0  0  0  0  0  0  0  0  0  0
    9.3743    1.2007    0.0000 H   0  0  0  0  0  0  0  0  0  0  0  0
    7.5756    2.2402    0.0000 H   0  0  0  0  0  0  0  0  0  0  0  0
    6.7001    2.2876    0.0000 H   0  0  0  0  0  0  0  0  0  0  0  0
    6.6527    1.4120    0.0000 H   0  0  0  0  0  0  0  0  0  0  0  0
    9.0506    2.8582    0.0000 H   0  0  0  0  0  0  0  0  0  0  0  0
    8.4574    2.3259    0.0000 H   0  0  0  0  0  0  0  0  0  0  0  0
   10.0703    1.8251    0.0000 H   0  0  0  0  0  0  0  0  0  0  0  0
   10.6635    2.3574    0.0000 H   0  0  0  0  0  0  0  0  0  0  0  0
   10.5530    3.9846    0.0000 H   0  0  0  0  0  0  0  0  0  0  0  0
   11.4667    2.9948    0.0000 H   0  0  0  0  0  0  0  0  0  0  0  0
   11.9455    3.7294    0.0000 H   0  0  0  0  0  0  0  0  0  0  0  0
   11.2110    4.2082    0.0000 H   0  0  0  0  0  0  0  0  0  0  0  0
   10.1540    4.5536    0.0000 H   0  0  0  0  0  0  0  0  0  0  0  0
    9.2784    4.6010    0.0000 H   0  0  0  0  0  0  0  0  0  0  0  0
    9.2310    3.7255    0.0000 H   0  0  0  0  0  0  0  0  0  0  0  0
  1  2  1  0  0  0  0
  1  3  1  0  0  0  0
  1  9  1  0  0  0  0
  1 16  1  6  0  0  0
  2  6  1  0  0  0  0
  2  8  1  0  0  0  0
  2 17  1  1  0  0  0
  3  4  1  0  0  0  0
  3 11  1  0  0  0  0
  3 31  1  1  0  0  0
  4  5  1  0  0  0  0
  4 10  1  0  0  0  0
  4 32  1  6  0  0  0
  5  7  1  0  0  0  0
  5 15  1  0  0  0  0
  5 19  1  1  0  0  0
  6 12  1  0  0  0  0
  6 18  1  0  0  0  0
  6 33  1  6  0  0  0
  7 13  1  0  0  0  0
  7 14  1  0  0  0  0
  7 34  1  6  0  0  0
  8 10  1  0  0  0  0
  8 35  1  0  0  0  0
  8 36  1  0  0  0  0
  9 12  1  0  0  0  0
  9 37  1  0  0  0  0
  9 38  1  0  0  0  0
 10 39  1  0  0  0  0
 10 40  1  0  0  0  0
 11 13  1  0  0  0  0
 11 41  1  0  0  0  0
 11 42  1  0  0  0  0
 12 43  1  0  0  0  0
 12 44  1  0  0  0  0
 13 45  1  0  0  0  0
 13 46  1  0  0  0  0
 14 20  1  0  0  0  0
 14 22  1  0  0  0  0
 14 23  1  0  0  0  0
 15 21  1  0  0  0  0
 15 47  1  0  0  0  0
 15 48  1  0  0  0  0
 16 49  1  0  0  0  0
 16 50  1  0  0  0  0
 16 51  1  0  0  0  0
 17 52  1  0  0  0  0
 17 53  1  0  0  0  0
 17 54  1  0  0  0  0
 18 24  1  0  0  0  0
 18 25  1  6  0  0  0
 18 55  1  0  0  0  0
 19 56  1  0  0  0  0
 19 57  1  0  0  0  0
 19 58  1  0  0  0  0
 20 21  1  0  0  0  0
 20 59  1  0  0  0  0
 20 60  1  0  0  0  0
 21 61  1  0  0  0  0
 21 62  1  0  0  0  0
 22 63  1  0  0  0  0
 22 64  1  0  0  0  0
 22 65  1  0  0  0  0
 23 66  1  0  0  0  0
 23 67  1  0  0  0  0
 23 68  1  0  0  0  0
 24 26  1  0  0  0  0
 24 69  1  0  0  0  0
 24 70  1  0  0  0  0
 25 71  1  0  0  0  0
 25 72  1  0  0  0  0
 25 73  1  0  0  0  0
 26 27  1  0  0  0  0
 26 74  1  0  0  0  0
 26 75  1  0  0  0  0
 27 28  1  0  0  0  0
 27 76  1  0  0  0  0
 27 77  1  0  0  0  0
 28 29  1  0  0  0  0
 28 30  1  0  0  0  0
 28 78  1  0  0  0  0
 29 79  1  0  0  0  0
 29 80  1  0  0  0  0
 29 81  1  0  0  0  0
 30 82  1  0  0  0  0
 30 83  1  0  0  0  0
 30 84  1  0  0  0  0
M  END
> <PUBCHEM_COMPOUND_CID>
9548665

> <PUBCHEM_COMPOUND_CANONICALIZED>
1

> <PUBCHEM_CACTVS_COMPLEXITY>
616

> <PUBCHEM_CACTVS_HBOND_ACCEPTOR>
0

> <PUBCHEM_CACTVS_HBOND_DONOR>
0

> <PUBCHEM_CACTVS_ROTATABLE_BOND>
5

> <PUBCHEM_CACTVS_SUBSKEYS>
AAADcfB4AAAAAAAAAAAAAAAAAAAAAYAAAAAwYMAAAAAAAGDAAAAAGAAAAAAADwCAAAACAAAAAAAAAAAAAAAAAAAAAAAAAAAAAAAAAAIAAAAAAAAAAAAAAAEAgMAPgAAAAAAAAACAAAQAACAAAQAACAAAAA==

> <PUBCHEM_IUPAC_OPENEYE_NAME>
(5S,8R,9S,10R,13R,14S,17R)-17-[(1R)-1,5-dimethylhexyl]-4,4,10,13,14-pentamethyl-2,3,5,6,7,8,9,11,12,15,16,17-dodecahydro-1H-cyclopenta[a]phenanthrene

> <PUBCHEM_IUPAC_CAS_NAME>
(5S,8R,9S,10R,13R,14S,17R)-4,4,10,13,14-pentamethyl-17-[(2R)-6-methylheptan-2-yl]-2,3,5,6,7,8,9,11,12,15,16,17-dodecahydro-1H-cyclopenta[a]phenanthrene

> <PUBCHEM_IUPAC_NAME_MARKUP>
(5<I>S</I>,8<I>R</I>,9<I>S</I>,10<I>R</I>,13<I>R</I>,14<I>S</I>,17<I>R</I>)-4,4,10,13,14-pentamethyl-17-[(2<I>R</I>)-6-methylheptan-2-yl]-2,3,5,6,7,8,9,11,12,15,16,17-dodecahydro-1<I>H</I>-cyclopenta[a]phenanthrene

> <PUBCHEM_IUPAC_NAME>
(5S,8R,9S,10R,13R,14S,17R)-4,4,10,13,14-pentamethyl-17-[(2R)-6-methylheptan-2-yl]-2,3,5,6,7,8,9,11,12,15,16,17-dodecahydro-1H-cyclopenta[a]phenanthrene

> <PUBCHEM_IUPAC_SYSTEMATIC_NAME>
(5S,8R,9S,10R,13R,14S,17R)-4,4,10,13,14-pentamethyl-17-[(2R)-6-methylheptan-2-yl]-2,3,5,6,7,8,9,11,12,15,16,17-dodecahydro-1H-cyclopenta[a]phenanthrene

> <PUBCHEM_IUPAC_TRADITIONAL_NAME>
(5S,8R,9S,10R,13R,14S,17R)-17-[(1R)-1,5-dimethylhexyl]-4,4,10,13,14-pentamethyl-2,3,5,6,7,8,9,11,12,15,16,17-dodecahydro-1H-cyclopenta[a]phenanthrene

> <PUBCHEM_IUPAC_INCHI>
InChI=1S/C30H54/c1-21(2)11-9-12-22(3)23-15-19-30(8)25-13-14-26-27(4,5)17-10-18-28(26,6)24(25)16-20-29(23,30)7/h21-26H,9-20H2,1-8H3/t22-,23-,24+,25-,26+,28-,29-,30+/m1/s1

> <PUBCHEM_IUPAC_INCHIKEY>
ZQIOPEXWVBIZAV-ZKYCIREVSA-N

> <PUBCHEM_XLOGP3_AA>
12.1

> <PUBCHEM_EXACT_MASS>
414.422551722

> <PUBCHEM_MOLECULAR_FORMULA>
C30H54

> <PUBCHEM_MOLECULAR_WEIGHT>
414.7

> <PUBCHEM_OPENEYE_CAN_SMILES>
CC(C)CCCC(C)C1CCC2(C1(CCC3C2CCC4C3(CCCC4(C)C)C)C)C

> <PUBCHEM_OPENEYE_ISO_SMILES>
C[C@H](CCCC(C)C)[C@H]1CC[C@@]2([C@@]1(CC[C@H]3[C@H]2CC[C@@H]4[C@@]3(CCCC4(C)C)C)C)C

> <PUBCHEM_CACTVS_TPSA>
0

> <PUBCHEM_MONOISOTOPIC_WEIGHT>
414.422551722

> <PUBCHEM_TOTAL_CHARGE>
0

> <PUBCHEM_HEAVY_ATOM_COUNT>
30

> <PUBCHEM_ATOM_DEF_STEREO_COUNT>
8

> <PUBCHEM_ATOM_UDEF_STEREO_COUNT>
0

> <PUBCHEM_BOND_DEF_STEREO_COUNT>
0

> <PUBCHEM_BOND_UDEF_STEREO_COUNT>
0

> <PUBCHEM_ISOTOPIC_ATOM_COUNT>
0

> <PUBCHEM_COMPONENT_COUNT>
1

> <PUBCHEM_CACTVS_TAUTO_COUNT>
1

> <PUBCHEM_COORDINATE_TYPE>
1
5
255

> <PUBCHEM_BONDANNOTATIONS>
1  16  6
18  25  6
2  17  5
3  31  5
4  32  6
5  19  5
6  33  6
7  34  6

$$$$
