5281647
  -OEChem-01082214262D

 48 51  0     1  0  0  0  0  0999 V2000
    9.0564    0.5208    0.0000 O   0  0  0  0  0  0  0  0  0  0  0  0
    9.9320   -1.9758    0.0000 O   0  0  0  0  0  0  0  0  0  0  0  0
   11.6602   -0.9692    0.0000 O   0  0  0  0  0  0  0  0  0  0  0  0
   11.6525    1.0308    0.0000 O   0  0  0  0  0  0  0  0  0  0  0  0
   10.7807    2.5275    0.0000 O   0  0  0  0  0  0  0  0  0  0  0  0
    7.2785    0.5313    0.0000 O   0  0  0  0  0  0  0  0  0  0  0  0
    5.5301   -2.5033    0.0000 O   0  0  0  0  0  0  0  0  0  0  0  0
    9.0602   -2.5275    0.0000 O   0  0  0  0  0  0  0  0  0  0  0  0
    5.5301    0.4967    0.0000 O   0  0  0  0  0  0  0  0  0  0  0  0
    2.0000   -0.4792    0.0000 O   0  0  0  0  0  0  0  0  0  0  0  0
    2.0000   -2.5275    0.0000 O   0  0  0  0  0  0  0  0  0  0  0  0
    9.9282   -0.9758    0.0000 C   0  0  2  0  0  0  0  0  0  0  0  0
   10.7923   -0.4725    0.0000 C   0  0  2  0  0  0  0  0  0  0  0  0
    9.0602   -0.4792    0.0000 C   0  0  2  0  0  0  0  0  0  0  0  0
   10.7884    0.5275    0.0000 C   0  0  1  0  0  0  0  0  0  0  0  0
    9.9205    1.0241    0.0000 C   0  0  1  0  0  0  0  0  0  0  0  0
    8.1962   -0.9825    0.0000 C   0  0  0  0  0  0  0  0  0  0  0  0
    9.9166    2.0241    0.0000 C   0  0  0  0  0  0  0  0  0  0  0  0
    7.2901   -0.4687    0.0000 C   0  0  0  0  0  0  0  0  0  0  0  0
    8.1962   -2.0241    0.0000 C   0  0  0  0  0  0  0  0  0  0  0  0
    6.3961   -1.0033    0.0000 C   0  0  0  0  0  0  0  0  0  0  0  0
    6.3961   -2.0033    0.0000 C   0  0  0  0  0  0  0  0  0  0  0  0
    7.2901   -2.5380    0.0000 C   0  0  0  0  0  0  0  0  0  0  0  0
    5.5301   -0.5033    0.0000 C   0  0  0  0  0  0  0  0  0  0  0  0
    4.6641   -1.0033    0.0000 C   0  0  0  0  0  0  0  0  0  0  0  0
    4.6641   -2.0033    0.0000 C   0  0  0  0  0  0  0  0  0  0  0  0
    3.7702   -0.4687    0.0000 C   0  0  0  0  0  0  0  0  0  0  0  0
    3.7702   -2.5380    0.0000 C   0  0  0  0  0  0  0  0  0  0  0  0
    2.8641   -0.9825    0.0000 C   0  0  0  0  0  0  0  0  0  0  0  0
    2.8641   -2.0241    0.0000 C   0  0  0  0  0  0  0  0  0  0  0  0
    9.3925   -1.2879    0.0000 H   0  0  0  0  0  0  0  0  0  0  0  0
   10.7947   -1.0925    0.0000 H   0  0  0  0  0  0  0  0  0  0  0  0
    8.3225   -0.0570    0.0000 H   0  0  0  0  0  0  0  0  0  0  0  0
   10.7860    1.1475    0.0000 H   0  0  0  0  0  0  0  0  0  0  0  0
    9.3824    1.3321    0.0000 H   0  0  0  0  0  0  0  0  0  0  0  0
    9.7023    2.6059    0.0000 H   0  0  0  0  0  0  0  0  0  0  0  0
    9.3065    1.9141    0.0000 H   0  0  0  0  0  0  0  0  0  0  0  0
   10.4702   -2.2838    0.0000 H   0  0  0  0  0  0  0  0  0  0  0  0
   12.1960   -0.6571    0.0000 H   0  0  0  0  0  0  0  0  0  0  0  0
   12.1907    0.7229    0.0000 H   0  0  0  0  0  0  0  0  0  0  0  0
    7.2829   -3.1580    0.0000 H   0  0  0  0  0  0  0  0  0  0  0  0
   10.7783    3.1475    0.0000 H   0  0  0  0  0  0  0  0  0  0  0  0
    6.7380    0.8350    0.0000 H   0  0  0  0  0  0  0  0  0  0  0  0
    9.0579   -3.1475    0.0000 H   0  0  0  0  0  0  0  0  0  0  0  0
    3.7773    0.1513    0.0000 H   0  0  0  0  0  0  0  0  0  0  0  0
    3.7773   -3.1580    0.0000 H   0  0  0  0  0  0  0  0  0  0  0  0
    2.0024    0.1408    0.0000 H   0  0  0  0  0  0  0  0  0  0  0  0
    2.0024   -3.1475    0.0000 H   0  0  0  0  0  0  0  0  0  0  0  0
  1 14  1  0  0  0  0
  1 16  1  0  0  0  0
 12  2  1  1  0  0  0
  2 38  1  0  0  0  0
 13  3  1  6  0  0  0
  3 39  1  0  0  0  0
 15  4  1  1  0  0  0
  4 40  1  0  0  0  0
  5 18  1  0  0  0  0
  5 42  1  0  0  0  0
  6 19  1  0  0  0  0
  6 43  1  0  0  0  0
  7 22  1  0  0  0  0
  7 26  1  0  0  0  0
  8 20  1  0  0  0  0
  8 44  1  0  0  0  0
  9 24  2  0  0  0  0
 10 29  1  0  0  0  0
 10 47  1  0  0  0  0
 11 30  1  0  0  0  0
 11 48  1  0  0  0  0
 12 13  1  0  0  0  0
 12 14  1  0  0  0  0
 12 31  1  0  0  0  0
 13 15  1  0  0  0  0
 13 32  1  0  0  0  0
 14 17  1  0  0  0  0
 14 33  1  1  0  0  0
 15 16  1  0  0  0  0
 15 34  1  0  0  0  0
 16 18  1  6  0  0  0
 16 35  1  0  0  0  0
 17 19  2  0  0  0  0
 17 20  1  0  0  0  0
 18 36  1  0  0  0  0
 18 37  1  0  0  0  0
 19 21  1  0  0  0  0
 20 23  2  0  0  0  0
 21 22  2  0  0  0  0
 21 24  1  0  0  0  0
 22 23  1  0  0  0  0
 23 41  1  0  0  0  0
 24 25  1  0  0  0  0
 25 26  1  0  0  0  0
 25 27  2  0  0  0  0
 26 28  2  0  0  0  0
 27 29  1  0  0  0  0
 27 45  1  0  0  0  0
 28 30  1  0  0  0  0
 28 46  1  0  0  0  0
 29 30  2  0  0  0  0
M  END
> <PUBCHEM_COMPOUND_CID>
5281647

> <PUBCHEM_COMPOUND_CANONICALIZED>
1

> <PUBCHEM_CACTVS_COMPLEXITY>
646

> <PUBCHEM_CACTVS_HBOND_ACCEPTOR>
11

> <PUBCHEM_CACTVS_HBOND_DONOR>
8

> <PUBCHEM_CACTVS_ROTATABLE_BOND>
2

> <PUBCHEM_CACTVS_SUBSKEYS>
AAADceB4PAAAAAAAAAAAAAAAAAAAAAAAAAA0aIEAAAAAAACRQAAAGgAACAAADBSgmAIwBoAABgCIAqBSAAACCAAkIAAAiAEGiMgNNzaGNBqCeWGl4BULuYfK7PzOIQADCAAIQABCAAYQABCAAAAAAAAAAA==

> <PUBCHEM_IUPAC_OPENEYE_NAME>
1,3,6,7-tetrahydroxy-2-[(2S,3R,4R,5S,6R)-3,4,5-trihydroxy-6-(hydroxymethyl)tetrahydropyran-2-yl]xanthen-9-one

> <PUBCHEM_IUPAC_CAS_NAME>
1,3,6,7-tetrahydroxy-2-[(2S,3R,4R,5S,6R)-3,4,5-trihydroxy-6-(hydroxymethyl)-2-oxanyl]-9-xanthenone

> <PUBCHEM_IUPAC_NAME_MARKUP>
1,3,6,7-tetrahydroxy-2-[(2<I>S</I>,3<I>R</I>,4<I>R</I>,5<I>S</I>,6<I>R</I>)-3,4,5-trihydroxy-6-(hydroxymethyl)oxan-2-yl]xanthen-9-one

> <PUBCHEM_IUPAC_NAME>
1,3,6,7-tetrahydroxy-2-[(2S,3R,4R,5S,6R)-3,4,5-trihydroxy-6-(hydroxymethyl)oxan-2-yl]xanthen-9-one

> <PUBCHEM_IUPAC_SYSTEMATIC_NAME>
2-[(2S,3R,4R,5S,6R)-6-(hydroxymethyl)-3,4,5-tris(oxidanyl)oxan-2-yl]-1,3,6,7-tetrakis(oxidanyl)xanthen-9-one

> <PUBCHEM_IUPAC_TRADITIONAL_NAME>
1,3,6,7-tetrahydroxy-2-[(2S,3R,4R,5S,6R)-3,4,5-trihydroxy-6-methylol-tetrahydropyran-2-yl]xanthone

> <PUBCHEM_IUPAC_INCHI>
InChI=1S/C19H18O11/c20-4-11-15(25)17(27)18(28)19(30-11)12-8(23)3-10-13(16(12)26)14(24)5-1-6(21)7(22)2-9(5)29-10/h1-3,11,15,17-23,25-28H,4H2/t11-,15-,17+,18-,19+/m1/s1

> <PUBCHEM_IUPAC_INCHIKEY>
AEDDIBAIWPIIBD-ZJKJAXBQSA-N

> <PUBCHEM_XLOGP3_AA>
-0.4

> <PUBCHEM_EXACT_MASS>
422.08491139

> <PUBCHEM_MOLECULAR_FORMULA>
C19H18O11

> <PUBCHEM_MOLECULAR_WEIGHT>
422.3

> <PUBCHEM_OPENEYE_CAN_SMILES>
C1=C2C(=CC(=C1O)O)OC3=C(C2=O)C(=C(C(=C3)O)C4C(C(C(C(O4)CO)O)O)O)O

> <PUBCHEM_OPENEYE_ISO_SMILES>
C1=C2C(=CC(=C1O)O)OC3=C(C2=O)C(=C(C(=C3)O)[C@H]4[C@@H]([C@H]([C@@H]([C@H](O4)CO)O)O)O)O

> <PUBCHEM_CACTVS_TPSA>
197

> <PUBCHEM_MONOISOTOPIC_WEIGHT>
422.08491139

> <PUBCHEM_TOTAL_CHARGE>
0

> <PUBCHEM_HEAVY_ATOM_COUNT>
30

> <PUBCHEM_ATOM_DEF_STEREO_COUNT>
5

> <PUBCHEM_ATOM_UDEF_STEREO_COUNT>
0

> <PUBCHEM_BOND_DEF_STEREO_COUNT>
0

> <PUBCHEM_BOND_UDEF_STEREO_COUNT>
0

> <PUBCHEM_ISOTOPIC_ATOM_COUNT>
0

> <PUBCHEM_COMPONENT_COUNT>
1

> <PUBCHEM_CACTVS_TAUTO_COUNT>
-1

> <PUBCHEM_COORDINATE_TYPE>
1
5
255

> <PUBCHEM_BONDANNOTATIONS>
14  33  5
16  18  6
17  19  8
17  20  8
19  21  8
12  2  5
20  23  8
21  22  8
21  24  8
22  23  8
24  25  8
25  26  8
25  27  8
26  28  8
27  29  8
28  30  8
29  30  8
13  3  6
15  4  5
7  22  8
7  26  8

$$$$
