283632
  -OEChem-01082214462D

 55 55  0     0  0  0  0  0  0999 V2000
   14.8660    3.7141    0.0000 O   0  0  0  0  0  0  0  0  0  0  0  0
   14.8660    1.9820    0.0000 O   0  0  0  0  0  0  0  0  0  0  0  0
    8.0000   -0.2500    0.0000 C   0  0  0  0  0  0  0  0  0  0  0  0
    8.8660    0.2500    0.0000 C   0  0  0  0  0  0  0  0  0  0  0  0
    8.0000    0.7500    0.0000 C   0  0  0  0  0  0  0  0  0  0  0  0
    7.5000   -1.1160    0.0000 C   0  0  0  0  0  0  0  0  0  0  0  0
    9.8660    0.2500    0.0000 C   0  0  0  0  0  0  0  0  0  0  0  0
    6.5000   -1.1160    0.0000 C   0  0  0  0  0  0  0  0  0  0  0  0
   10.3660    1.1160    0.0000 C   0  0  0  0  0  0  0  0  0  0  0  0
    6.0000   -1.9820    0.0000 C   0  0  0  0  0  0  0  0  0  0  0  0
   11.3660    1.1160    0.0000 C   0  0  0  0  0  0  0  0  0  0  0  0
    5.0000   -1.9820    0.0000 C   0  0  0  0  0  0  0  0  0  0  0  0
   11.8660    1.9820    0.0000 C   0  0  0  0  0  0  0  0  0  0  0  0
    4.5000   -2.8481    0.0000 C   0  0  0  0  0  0  0  0  0  0  0  0
   12.8660    1.9820    0.0000 C   0  0  0  0  0  0  0  0  0  0  0  0
    3.5000   -2.8481    0.0000 C   0  0  0  0  0  0  0  0  0  0  0  0
    3.0000   -3.7141    0.0000 C   0  0  0  0  0  0  0  0  0  0  0  0
   13.3660    2.8481    0.0000 C   0  0  0  0  0  0  0  0  0  0  0  0
    2.0000   -3.7141    0.0000 C   0  0  0  0  0  0  0  0  0  0  0  0
   14.3660    2.8481    0.0000 C   0  0  0  0  0  0  0  0  0  0  0  0
   15.8660    3.7141    0.0000 C   0  0  0  0  0  0  0  0  0  0  0  0
    8.2120    1.3326    0.0000 H   0  0  0  0  0  0  0  0  0  0  0  0
    7.3894    0.8577    0.0000 H   0  0  0  0  0  0  0  0  0  0  0  0
    7.3923   -1.7266    0.0000 H   0  0  0  0  0  0  0  0  0  0  0  0
    8.0826   -1.3281    0.0000 H   0  0  0  0  0  0  0  0  0  0  0  0
    9.7584   -0.3606    0.0000 H   0  0  0  0  0  0  0  0  0  0  0  0
   10.4486    0.0379    0.0000 H   0  0  0  0  0  0  0  0  0  0  0  0
    6.6077   -0.5054    0.0000 H   0  0  0  0  0  0  0  0  0  0  0  0
    5.9174   -0.9040    0.0000 H   0  0  0  0  0  0  0  0  0  0  0  0
   10.4737    1.7266    0.0000 H   0  0  0  0  0  0  0  0  0  0  0  0
    9.7834    1.3281    0.0000 H   0  0  0  0  0  0  0  0  0  0  0  0
    5.8923   -2.5926    0.0000 H   0  0  0  0  0  0  0  0  0  0  0  0
    6.5826   -2.1941    0.0000 H   0  0  0  0  0  0  0  0  0  0  0  0
   11.2584    0.5054    0.0000 H   0  0  0  0  0  0  0  0  0  0  0  0
   11.9486    0.9040    0.0000 H   0  0  0  0  0  0  0  0  0  0  0  0
    5.1077   -1.3715    0.0000 H   0  0  0  0  0  0  0  0  0  0  0  0
    4.4174   -1.7700    0.0000 H   0  0  0  0  0  0  0  0  0  0  0  0
   11.9737    2.5926    0.0000 H   0  0  0  0  0  0  0  0  0  0  0  0
   11.2834    2.1941    0.0000 H   0  0  0  0  0  0  0  0  0  0  0  0
    4.3923   -3.4587    0.0000 H   0  0  0  0  0  0  0  0  0  0  0  0
    5.0826   -3.0601    0.0000 H   0  0  0  0  0  0  0  0  0  0  0  0
   12.7584    1.3715    0.0000 H   0  0  0  0  0  0  0  0  0  0  0  0
   13.4486    1.7700    0.0000 H   0  0  0  0  0  0  0  0  0  0  0  0
    3.6077   -2.2375    0.0000 H   0  0  0  0  0  0  0  0  0  0  0  0
    2.9174   -2.6360    0.0000 H   0  0  0  0  0  0  0  0  0  0  0  0
    2.8923   -4.3247    0.0000 H   0  0  0  0  0  0  0  0  0  0  0  0
    3.5826   -3.9262    0.0000 H   0  0  0  0  0  0  0  0  0  0  0  0
   13.4737    3.4587    0.0000 H   0  0  0  0  0  0  0  0  0  0  0  0
   12.7834    3.0601    0.0000 H   0  0  0  0  0  0  0  0  0  0  0  0
    2.0000   -3.0941    0.0000 H   0  0  0  0  0  0  0  0  0  0  0  0
    1.3800   -3.7141    0.0000 H   0  0  0  0  0  0  0  0  0  0  0  0
    2.0000   -4.3341    0.0000 H   0  0  0  0  0  0  0  0  0  0  0  0
   15.8660    3.0941    0.0000 H   0  0  0  0  0  0  0  0  0  0  0  0
   16.4860    3.7141    0.0000 H   0  0  0  0  0  0  0  0  0  0  0  0
   15.8660    4.3341    0.0000 H   0  0  0  0  0  0  0  0  0  0  0  0
  1 20  1  0  0  0  0
  1 21  1  0  0  0  0
  2 20  2  0  0  0  0
  3  4  2  0  0  0  0
  3  5  1  0  0  0  0
  3  6  1  0  0  0  0
  4  5  1  0  0  0  0
  4  7  1  0  0  0  0
  5 22  1  0  0  0  0
  5 23  1  0  0  0  0
  6  8  1  0  0  0  0
  6 24  1  0  0  0  0
  6 25  1  0  0  0  0
  7  9  1  0  0  0  0
  7 26  1  0  0  0  0
  7 27  1  0  0  0  0
  8 10  1  0  0  0  0
  8 28  1  0  0  0  0
  8 29  1  0  0  0  0
  9 11  1  0  0  0  0
  9 30  1  0  0  0  0
  9 31  1  0  0  0  0
 10 12  1  0  0  0  0
 10 32  1  0  0  0  0
 10 33  1  0  0  0  0
 11 13  1  0  0  0  0
 11 34  1  0  0  0  0
 11 35  1  0  0  0  0
 12 14  1  0  0  0  0
 12 36  1  0  0  0  0
 12 37  1  0  0  0  0
 13 15  1  0  0  0  0
 13 38  1  0  0  0  0
 13 39  1  0  0  0  0
 14 16  1  0  0  0  0
 14 40  1  0  0  0  0
 14 41  1  0  0  0  0
 15 18  1  0  0  0  0
 15 42  1  0  0  0  0
 15 43  1  0  0  0  0
 16 17  1  0  0  0  0
 16 44  1  0  0  0  0
 16 45  1  0  0  0  0
 17 19  1  0  0  0  0
 17 46  1  0  0  0  0
 17 47  1  0  0  0  0
 18 20  1  0  0  0  0
 18 48  1  0  0  0  0
 18 49  1  0  0  0  0
 19 50  1  0  0  0  0
 19 51  1  0  0  0  0
 19 52  1  0  0  0  0
 21 53  1  0  0  0  0
 21 54  1  0  0  0  0
 21 55  1  0  0  0  0
M  END
> <PUBCHEM_COMPOUND_CID>
283632

> <PUBCHEM_COMPOUND_CANONICALIZED>
1

> <PUBCHEM_CACTVS_COMPLEXITY>
318

> <PUBCHEM_CACTVS_HBOND_ACCEPTOR>
2

> <PUBCHEM_CACTVS_HBOND_DONOR>
0

> <PUBCHEM_CACTVS_ROTATABLE_BOND>
15

> <PUBCHEM_CACTVS_SUBSKEYS>
AAADcfB4MAAAAAAAAAAAAAAAEAAAAAAAAAAAAAAAAAAAAAAAAAAAGgAAAAAADACAgAICCAAABACIAgDQCAAAAAAgAAAACAEAAAgAABIAAAAAAAAEgAAIAAOIyKCAAAAAAAAAAAAAAAAAAAAAAAAAAAAAAA==

> <PUBCHEM_IUPAC_OPENEYE_NAME>
methyl 7-(2-octylcyclopropen-1-yl)heptanoate

> <PUBCHEM_IUPAC_CAS_NAME>
7-(2-octyl-1-cyclopropenyl)heptanoic acid methyl ester

> <PUBCHEM_IUPAC_NAME_MARKUP>
methyl 7-(2-octylcyclopropen-1-yl)heptanoate

> <PUBCHEM_IUPAC_NAME>
methyl 7-(2-octylcyclopropen-1-yl)heptanoate

> <PUBCHEM_IUPAC_SYSTEMATIC_NAME>
methyl 7-(2-octylcyclopropen-1-yl)heptanoate

> <PUBCHEM_IUPAC_TRADITIONAL_NAME>
7-(2-octylcyclopropen-1-yl)enanthic acid methyl ester

> <PUBCHEM_IUPAC_INCHI>
InChI=1S/C19H34O2/c1-3-4-5-6-7-10-13-17-16-18(17)14-11-8-9-12-15-19(20)21-2/h3-16H2,1-2H3

> <PUBCHEM_IUPAC_INCHIKEY>
GYLXZHKHPYLEIF-UHFFFAOYSA-N

> <PUBCHEM_XLOGP3_AA>
6.3

> <PUBCHEM_EXACT_MASS>
294.255880323

> <PUBCHEM_MOLECULAR_FORMULA>
C19H34O2

> <PUBCHEM_MOLECULAR_WEIGHT>
294.5

> <PUBCHEM_OPENEYE_CAN_SMILES>
CCCCCCCCC1=C(C1)CCCCCCC(=O)OC

> <PUBCHEM_OPENEYE_ISO_SMILES>
CCCCCCCCC1=C(C1)CCCCCCC(=O)OC

> <PUBCHEM_CACTVS_TPSA>
26.3

> <PUBCHEM_MONOISOTOPIC_WEIGHT>
294.255880323

> <PUBCHEM_TOTAL_CHARGE>
0

> <PUBCHEM_HEAVY_ATOM_COUNT>
21

> <PUBCHEM_ATOM_DEF_STEREO_COUNT>
0

> <PUBCHEM_ATOM_UDEF_STEREO_COUNT>
0

> <PUBCHEM_BOND_DEF_STEREO_COUNT>
0

> <PUBCHEM_BOND_UDEF_STEREO_COUNT>
0

> <PUBCHEM_ISOTOPIC_ATOM_COUNT>
0

> <PUBCHEM_COMPONENT_COUNT>
1

> <PUBCHEM_CACTVS_TAUTO_COUNT>
1

> <PUBCHEM_COORDINATE_TYPE>
1
5
255

$$$$
