6455854
  -OEChem-01302209592D

110108  0     0  0  0  0  0  0999 V2000
    0.5369    1.5000    0.0000 O   0  0  0  0  0  0  0  0  0  0  0  0
    1.4030    0.0000    0.0000 O   0  0  0  0  0  0  0  0  0  0  0  0
    2.2690    5.5369    0.0000 O   0  0  0  0  0  0  0  0  0  0  0  0
    3.1350    4.0369    0.0000 O   0  0  0  0  0  0  0  0  0  0  0  0
    9.1972    1.5000    0.0000 C   0  0  0  0  0  0  0  0  0  0  0  0
    8.3312    1.0000    0.0000 C   0  0  0  0  0  0  0  0  0  0  0  0
   10.0632    1.0000    0.0000 C   0  0  0  0  0  0  0  0  0  0  0  0
    7.4651    1.5000    0.0000 C   0  0  0  0  0  0  0  0  0  0  0  0
   10.9292    1.5000    0.0000 C   0  0  0  0  0  0  0  0  0  0  0  0
    6.5991    1.0000    0.0000 C   0  0  0  0  0  0  0  0  0  0  0  0
   11.7953    1.0000    0.0000 C   0  0  0  0  0  0  0  0  0  0  0  0
    5.7331    1.5000    0.0000 C   0  0  0  0  0  0  0  0  0  0  0  0
   12.6613    1.5000    0.0000 C   0  0  0  0  0  0  0  0  0  0  0  0
    4.8671    1.0000    0.0000 C   0  0  0  0  0  0  0  0  0  0  0  0
   13.5273    1.0000    0.0000 C   0  0  0  0  0  0  0  0  0  0  0  0
    4.0010    1.5000    0.0000 C   0  0  0  0  0  0  0  0  0  0  0  0
   14.3933    1.5000    0.0000 C   0  0  0  0  0  0  0  0  0  0  0  0
    3.1350    1.0000    0.0000 C   0  0  0  0  0  0  0  0  0  0  0  0
   15.2594    1.0000    0.0000 C   0  0  0  0  0  0  0  0  0  0  0  0
   12.6613    8.5369    0.0000 C   0  0  0  0  0  0  0  0  0  0  0  0
   11.7953    8.0369    0.0000 C   0  0  0  0  0  0  0  0  0  0  0  0
    2.2690    1.5000    0.0000 C   0  0  0  0  0  0  0  0  0  0  0  0
   12.6613    9.5369    0.0000 C   0  0  0  0  0  0  0  0  0  0  0  0
   11.7953    7.0369    0.0000 C   0  0  0  0  0  0  0  0  0  0  0  0
    7.4651    5.5369    0.0000 C   0  0  0  0  0  0  0  0  0  0  0  0
    6.5991    5.0369    0.0000 C   0  0  0  0  0  0  0  0  0  0  0  0
    8.3312    5.0369    0.0000 C   0  0  0  0  0  0  0  0  0  0  0  0
   13.5273   10.0369    0.0000 C   0  0  0  0  0  0  0  0  0  0  0  0
    5.7331    5.5369    0.0000 C   0  0  0  0  0  0  0  0  0  0  0  0
   10.9292    6.5369    0.0000 C   0  0  0  0  0  0  0  0  0  0  0  0
   16.1254    1.5000    0.0000 C   0  0  0  0  0  0  0  0  0  0  0  0
    9.1972    5.5369    0.0000 C   0  0  0  0  0  0  0  0  0  0  0  0
    4.8671    5.0369    0.0000 C   0  0  0  0  0  0  0  0  0  0  0  0
   13.5273   11.0369    0.0000 C   0  0  0  0  0  0  0  0  0  0  0  0
   10.9292    5.5369    0.0000 C   0  0  0  0  0  0  0  0  0  0  0  0
   10.0632    5.0369    0.0000 C   0  0  0  0  0  0  0  0  0  0  0  0
    1.4030    1.0000    0.0000 C   0  0  0  0  0  0  0  0  0  0  0  0
    4.0010    5.5369    0.0000 C   0  0  0  0  0  0  0  0  0  0  0  0
   14.3933   11.5369    0.0000 C   0  0  0  0  0  0  0  0  0  0  0  0
    3.1350    5.0369    0.0000 C   0  0  0  0  0  0  0  0  0  0  0  0
    9.5957    1.9750    0.0000 H   0  0  0  0  0  0  0  0  0  0  0  0
    8.7987    1.9750    0.0000 H   0  0  0  0  0  0  0  0  0  0  0  0
    7.9326    0.5251    0.0000 H   0  0  0  0  0  0  0  0  0  0  0  0
    8.7297    0.5251    0.0000 H   0  0  0  0  0  0  0  0  0  0  0  0
    9.6647    0.5251    0.0000 H   0  0  0  0  0  0  0  0  0  0  0  0
   10.4617    0.5251    0.0000 H   0  0  0  0  0  0  0  0  0  0  0  0
    7.8637    1.9750    0.0000 H   0  0  0  0  0  0  0  0  0  0  0  0
    7.0666    1.9750    0.0000 H   0  0  0  0  0  0  0  0  0  0  0  0
   11.3278    1.9750    0.0000 H   0  0  0  0  0  0  0  0  0  0  0  0
   10.5307    1.9750    0.0000 H   0  0  0  0  0  0  0  0  0  0  0  0
    6.2006    0.5251    0.0000 H   0  0  0  0  0  0  0  0  0  0  0  0
    6.9976    0.5251    0.0000 H   0  0  0  0  0  0  0  0  0  0  0  0
   11.3967    0.5251    0.0000 H   0  0  0  0  0  0  0  0  0  0  0  0
   12.1938    0.5251    0.0000 H   0  0  0  0  0  0  0  0  0  0  0  0
    6.1316    1.9750    0.0000 H   0  0  0  0  0  0  0  0  0  0  0  0
    5.3346    1.9750    0.0000 H   0  0  0  0  0  0  0  0  0  0  0  0
   13.0598    1.9750    0.0000 H   0  0  0  0  0  0  0  0  0  0  0  0
   12.2628    1.9750    0.0000 H   0  0  0  0  0  0  0  0  0  0  0  0
    4.4685    0.5251    0.0000 H   0  0  0  0  0  0  0  0  0  0  0  0
    5.2656    0.5251    0.0000 H   0  0  0  0  0  0  0  0  0  0  0  0
   13.1288    0.5251    0.0000 H   0  0  0  0  0  0  0  0  0  0  0  0
   13.9258    0.5251    0.0000 H   0  0  0  0  0  0  0  0  0  0  0  0
    4.3996    1.9750    0.0000 H   0  0  0  0  0  0  0  0  0  0  0  0
    3.6025    1.9750    0.0000 H   0  0  0  0  0  0  0  0  0  0  0  0
   14.7919    1.9750    0.0000 H   0  0  0  0  0  0  0  0  0  0  0  0
   13.9948    1.9750    0.0000 H   0  0  0  0  0  0  0  0  0  0  0  0
    2.7365    0.5251    0.0000 H   0  0  0  0  0  0  0  0  0  0  0  0
    3.5335    0.5251    0.0000 H   0  0  0  0  0  0  0  0  0  0  0  0
   14.8608    0.5251    0.0000 H   0  0  0  0  0  0  0  0  0  0  0  0
   15.6579    0.5251    0.0000 H   0  0  0  0  0  0  0  0  0  0  0  0
   12.8733    7.9543    0.0000 H   0  0  0  0  0  0  0  0  0  0  0  0
   13.2719    8.6446    0.0000 H   0  0  0  0  0  0  0  0  0  0  0  0
   11.5832    8.6195    0.0000 H   0  0  0  0  0  0  0  0  0  0  0  0
   11.1847    7.9293    0.0000 H   0  0  0  0  0  0  0  0  0  0  0  0
    2.6675    1.9750    0.0000 H   0  0  0  0  0  0  0  0  0  0  0  0
    1.8705    1.9750    0.0000 H   0  0  0  0  0  0  0  0  0  0  0  0
   12.4492   10.1195    0.0000 H   0  0  0  0  0  0  0  0  0  0  0  0
   12.0507    9.4293    0.0000 H   0  0  0  0  0  0  0  0  0  0  0  0
   12.0073    6.4543    0.0000 H   0  0  0  0  0  0  0  0  0  0  0  0
   12.4058    7.1446    0.0000 H   0  0  0  0  0  0  0  0  0  0  0  0
    7.8637    6.0119    0.0000 H   0  0  0  0  0  0  0  0  0  0  0  0
    7.0666    6.0119    0.0000 H   0  0  0  0  0  0  0  0  0  0  0  0
    6.2006    4.5620    0.0000 H   0  0  0  0  0  0  0  0  0  0  0  0
    6.9976    4.5620    0.0000 H   0  0  0  0  0  0  0  0  0  0  0  0
    7.9326    4.5620    0.0000 H   0  0  0  0  0  0  0  0  0  0  0  0
    8.7297    4.5620    0.0000 H   0  0  0  0  0  0  0  0  0  0  0  0
   13.7394    9.4543    0.0000 H   0  0  0  0  0  0  0  0  0  0  0  0
   14.1379   10.1446    0.0000 H   0  0  0  0  0  0  0  0  0  0  0  0
    6.1316    6.0119    0.0000 H   0  0  0  0  0  0  0  0  0  0  0  0
    5.3346    6.0119    0.0000 H   0  0  0  0  0  0  0  0  0  0  0  0
   10.7172    7.1196    0.0000 H   0  0  0  0  0  0  0  0  0  0  0  0
   10.3187    6.4293    0.0000 H   0  0  0  0  0  0  0  0  0  0  0  0
   16.4354    0.9631    0.0000 H   0  0  0  0  0  0  0  0  0  0  0  0
   16.6623    1.8100    0.0000 H   0  0  0  0  0  0  0  0  0  0  0  0
   15.8154    2.0369    0.0000 H   0  0  0  0  0  0  0  0  0  0  0  0
    9.5957    6.0119    0.0000 H   0  0  0  0  0  0  0  0  0  0  0  0
    8.7987    6.0119    0.0000 H   0  0  0  0  0  0  0  0  0  0  0  0
    4.4685    4.5620    0.0000 H   0  0  0  0  0  0  0  0  0  0  0  0
    5.2656    4.5620    0.0000 H   0  0  0  0  0  0  0  0  0  0  0  0
   13.3153   11.6195    0.0000 H   0  0  0  0  0  0  0  0  0  0  0  0
   12.9167   10.9293    0.0000 H   0  0  0  0  0  0  0  0  0  0  0  0
   11.4662    5.2269    0.0000 H   0  0  0  0  0  0  0  0  0  0  0  0
   10.0632    4.4169    0.0000 H   0  0  0  0  0  0  0  0  0  0  0  0
    4.3996    6.0119    0.0000 H   0  0  0  0  0  0  0  0  0  0  0  0
    3.6025    6.0119    0.0000 H   0  0  0  0  0  0  0  0  0  0  0  0
   14.7033   11.0000    0.0000 H   0  0  0  0  0  0  0  0  0  0  0  0
   14.9303   11.8469    0.0000 H   0  0  0  0  0  0  0  0  0  0  0  0
   14.0833   12.0739    0.0000 H   0  0  0  0  0  0  0  0  0  0  0  0
    0.0000    1.1900    0.0000 H   0  0  0  0  0  0  0  0  0  0  0  0
    1.7320    5.2269    0.0000 H   0  0  0  0  0  0  0  0  0  0  0  0
  1 37  1  0  0  0  0
  1109  1  0  0  0  0
  2 37  2  0  0  0  0
  3 40  1  0  0  0  0
  3110  1  0  0  0  0
  4 40  2  0  0  0  0
  5  6  1  0  0  0  0
  5  7  1  0  0  0  0
  5 41  1  0  0  0  0
  5 42  1  0  0  0  0
  6  8  1  0  0  0  0
  6 43  1  0  0  0  0
  6 44  1  0  0  0  0
  7  9  1  0  0  0  0
  7 45  1  0  0  0  0
  7 46  1  0  0  0  0
  8 10  1  0  0  0  0
  8 47  1  0  0  0  0
  8 48  1  0  0  0  0
  9 11  1  0  0  0  0
  9 49  1  0  0  0  0
  9 50  1  0  0  0  0
 10 12  1  0  0  0  0
 10 51  1  0  0  0  0
 10 52  1  0  0  0  0
 11 13  1  0  0  0  0
 11 53  1  0  0  0  0
 11 54  1  0  0  0  0
 12 14  1  0  0  0  0
 12 55  1  0  0  0  0
 12 56  1  0  0  0  0
 13 15  1  0  0  0  0
 13 57  1  0  0  0  0
 13 58  1  0  0  0  0
 14 16  1  0  0  0  0
 14 59  1  0  0  0  0
 14 60  1  0  0  0  0
 15 17  1  0  0  0  0
 15 61  1  0  0  0  0
 15 62  1  0  0  0  0
 16 18  1  0  0  0  0
 16 63  1  0  0  0  0
 16 64  1  0  0  0  0
 17 19  1  0  0  0  0
 17 65  1  0  0  0  0
 17 66  1  0  0  0  0
 18 22  1  0  0  0  0
 18 67  1  0  0  0  0
 18 68  1  0  0  0  0
 19 31  1  0  0  0  0
 19 69  1  0  0  0  0
 19 70  1  0  0  0  0
 20 21  1  0  0  0  0
 20 23  1  0  0  0  0
 20 71  1  0  0  0  0
 20 72  1  0  0  0  0
 21 24  1  0  0  0  0
 21 73  1  0  0  0  0
 21 74  1  0  0  0  0
 22 37  1  0  0  0  0
 22 75  1  0  0  0  0
 22 76  1  0  0  0  0
 23 28  1  0  0  0  0
 23 77  1  0  0  0  0
 23 78  1  0  0  0  0
 24 30  1  0  0  0  0
 24 79  1  0  0  0  0
 24 80  1  0  0  0  0
 25 26  1  0  0  0  0
 25 27  1  0  0  0  0
 25 81  1  0  0  0  0
 25 82  1  0  0  0  0
 26 29  1  0  0  0  0
 26 83  1  0  0  0  0
 26 84  1  0  0  0  0
 27 32  1  0  0  0  0
 27 85  1  0  0  0  0
 27 86  1  0  0  0  0
 28 34  1  0  0  0  0
 28 87  1  0  0  0  0
 28 88  1  0  0  0  0
 29 33  1  0  0  0  0
 29 89  1  0  0  0  0
 29 90  1  0  0  0  0
 30 35  1  0  0  0  0
 30 91  1  0  0  0  0
 30 92  1  0  0  0  0
 31 93  1  0  0  0  0
 31 94  1  0  0  0  0
 31 95  1  0  0  0  0
 32 36  1  0  0  0  0
 32 96  1  0  0  0  0
 32 97  1  0  0  0  0
 33 38  1  0  0  0  0
 33 98  1  0  0  0  0
 33 99  1  0  0  0  0
 34 39  1  0  0  0  0
 34100  1  0  0  0  0
 34101  1  0  0  0  0
 35 36  2  0  0  0  0
 35102  1  0  0  0  0
 36103  1  0  0  0  0
 38 40  1  0  0  0  0
 38104  1  0  0  0  0
 38105  1  0  0  0  0
 39106  1  0  0  0  0
 39107  1  0  0  0  0
 39108  1  0  0  0  0
M  END
> <PUBCHEM_COMPOUND_CID>
6455854

> <PUBCHEM_COMPOUND_CANONICALIZED>
1

> <PUBCHEM_CACTVS_COMPLEXITY>
435

> <PUBCHEM_CACTVS_HBOND_ACCEPTOR>
4

> <PUBCHEM_CACTVS_HBOND_DONOR>
2

> <PUBCHEM_CACTVS_ROTATABLE_BOND>
31

> <PUBCHEM_CACTVS_SUBSKEYS>
AAADcfB8OAAAAAAAAAAAAAAAAAAAAAAAAAAAAAAAAAAAAAAAAAAAGgAACAAACACAgAACCAAAAgCIACDSCAAAAAAgAAAICAEAAAgAABIAAQAAQAAEgAAIAAOIyKCAAAAAAAAAAAAAAAAAAAAAAAAAAAAAAA==

> <PUBCHEM_IUPAC_OPENEYE_NAME>
(Z)-octadec-9-enoic acid;stearic acid

> <PUBCHEM_IUPAC_CAS_NAME>
octadecanoic acid;(Z)-9-octadecenoic acid

> <PUBCHEM_IUPAC_NAME_MARKUP>
octadecanoic acid;(<I>Z</I>)-octadec-9-enoic acid

> <PUBCHEM_IUPAC_NAME>
octadecanoic acid;(Z)-octadec-9-enoic acid

> <PUBCHEM_IUPAC_SYSTEMATIC_NAME>
octadecanoic acid;(Z)-octadec-9-enoic acid

> <PUBCHEM_IUPAC_TRADITIONAL_NAME>
oleic acid;stearic acid

> <PUBCHEM_IUPAC_INCHI>
InChI=1S/C18H36O2.C18H34O2/c2*1-2-3-4-5-6-7-8-9-10-11-12-13-14-15-16-17-18(19)20/h2-17H2,1H3,(H,19,20);9-10H,2-8,11-17H2,1H3,(H,19,20)/b;10-9-

> <PUBCHEM_IUPAC_INCHIKEY>
QWIDXEUVWSDDQX-SVMKZPJVSA-N

> <PUBCHEM_EXACT_MASS>
566.52741071

> <PUBCHEM_MOLECULAR_FORMULA>
C36H70O4

> <PUBCHEM_MOLECULAR_WEIGHT>
566.9

> <PUBCHEM_OPENEYE_CAN_SMILES>
CCCCCCCCCCCCCCCCCC(=O)O.CCCCCCCCC=CCCCCCCCC(=O)O

> <PUBCHEM_OPENEYE_ISO_SMILES>
CCCCCCCCCCCCCCCCCC(=O)O.CCCCCCCC/C=C\CCCCCCCC(=O)O

> <PUBCHEM_CACTVS_TPSA>
74.6

> <PUBCHEM_MONOISOTOPIC_WEIGHT>
566.52741071

> <PUBCHEM_TOTAL_CHARGE>
0

> <PUBCHEM_HEAVY_ATOM_COUNT>
40

> <PUBCHEM_ATOM_DEF_STEREO_COUNT>
0

> <PUBCHEM_ATOM_UDEF_STEREO_COUNT>
0

> <PUBCHEM_BOND_DEF_STEREO_COUNT>
1

> <PUBCHEM_BOND_UDEF_STEREO_COUNT>
0

> <PUBCHEM_ISOTOPIC_ATOM_COUNT>
0

> <PUBCHEM_COMPONENT_COUNT>
2

> <PUBCHEM_CACTVS_TAUTO_COUNT>
1

> <PUBCHEM_COORDINATE_TYPE>
1
5
255

$$$$
