21637110
  -OEChem-01132214102D

154162  0     1  0  0  0  0  0999 V2000
   10.8882    1.3555    0.0000 O   0  0  0  0  0  0  0  0  0  0  0  0
    9.4651   -6.8886    0.0000 O   0  0  0  0  0  0  0  0  0  0  0  0
    7.7331   -6.8886    0.0000 O   0  0  0  0  0  0  0  0  0  0  0  0
    9.4651   -8.8886    0.0000 O   0  0  0  0  0  0  0  0  0  0  0  0
   11.3225    6.0093    0.0000 O   0  0  0  0  0  0  0  0  0  0  0  0
    7.7331   -9.8886    0.0000 O   0  0  0  0  0  0  0  0  0  0  0  0
    6.0010   -8.8886    0.0000 O   0  0  0  0  0  0  0  0  0  0  0  0
   10.3312   -7.3886    0.0000 O   0  0  0  0  0  0  0  0  0  0  0  0
    6.0010   -5.8886    0.0000 O   0  0  0  0  0  0  0  0  0  0  0  0
   12.0223    7.5937    0.0000 O   0  0  0  0  0  0  0  0  0  0  0  0
    5.1350   -7.3886    0.0000 O   0  0  0  0  0  0  0  0  0  0  0  0
   11.1972   -9.8886    0.0000 O   0  0  0  0  0  0  0  0  0  0  0  0
   13.1521    5.2013    0.0000 O   0  0  0  0  0  0  0  0  0  0  0  0
   12.9292   -8.8886    0.0000 O   0  0  0  0  0  0  0  0  0  0  0  0
    4.2690   -9.8886    0.0000 O   0  0  0  0  0  0  0  0  0  0  0  0
   12.9292   -6.8886    0.0000 O   0  0  0  0  0  0  0  0  0  0  0  0
   14.7666    6.3817    0.0000 O   0  0  0  0  0  0  0  0  0  0  0  0
    2.5369   -8.8886    0.0000 O   0  0  0  0  0  0  0  0  0  0  0  0
   14.5516    8.3701    0.0000 O   0  0  0  0  0  0  0  0  0  0  0  0
    2.5369   -6.8886    0.0000 O   0  0  0  0  0  0  0  0  0  0  0  0
   11.8073    9.5822    0.0000 O   0  0  0  0  0  0  0  0  0  0  0  0
    9.4944   -0.6917    0.0000 C   0  0  1  0  0  0  0  0  0  0  0  0
   10.3623   -1.1884    0.0000 C   0  0  2  0  0  0  0  0  0  0  0  0
   10.3662   -2.1883    0.0000 C   0  0  1  0  0  0  0  0  0  0  0  0
    9.5021   -2.6917    0.0000 C   0  0  1  0  0  0  0  0  0  0  0  0
    9.6999    0.2809    0.0000 C   0  0  2  0  0  0  0  0  0  0  0  0
   11.0968   -0.5184    0.0000 C   0  0  0  0  0  0  0  0  0  0  0  0
    8.6303   -1.1950    0.0000 C   0  0  0  0  0  0  0  0  0  0  0  0
   10.6882    0.3878    0.0000 C   0  0  2  0  0  0  0  0  0  0  0  0
    9.4901   -3.7332    0.0000 C   0  0  2  0  0  0  0  0  0  0  0  0
    8.6342   -2.1950    0.0000 C   0  0  0  0  0  0  0  0  0  0  0  0
   11.2781   -2.6917    0.0000 C   0  0  0  0  0  0  0  0  0  0  0  0
    8.6264   -0.1950    0.0000 C   0  0  0  0  0  0  0  0  0  0  0  0
   10.3901   -4.2575    0.0000 C   0  0  0  0  0  0  0  0  0  0  0  0
    9.2976    1.1835    0.0000 C   0  0  0  0  0  0  0  0  0  0  0  0
    8.5402   -4.2575    0.0000 C   0  0  0  0  0  0  0  0  0  0  0  0
   11.2902   -3.7332    0.0000 C   0  0  0  0  0  0  0  0  0  0  0  0
    8.6260   -3.2299    0.0000 C   0  0  0  0  0  0  0  0  0  0  0  0
   10.0305    1.8463    0.0000 C   0  0  0  0  0  0  0  0  0  0  0  0
   10.4027   -5.3424    0.0000 C   0  0  0  0  0  0  0  0  0  0  0  0
    8.5276   -5.3424    0.0000 C   0  0  0  0  0  0  0  0  0  0  0  0
    9.4651   -5.8886    0.0000 C   0  0  2  0  0  0  0  0  0  0  0  0
    8.3192    1.3902    0.0000 C   0  0  0  0  0  0  0  0  0  0  0  0
    9.9230    2.8405    0.0000 C   0  0  0  0  0  0  0  0  0  0  0  0
   10.7303    3.4307    0.0000 C   0  0  0  0  0  0  0  0  0  0  0  0
    8.5991   -7.3886    0.0000 C   0  0  2  0  0  0  0  0  0  0  0  0
   10.6228    4.4249    0.0000 C   0  0  2  0  0  0  0  0  0  0  0  0
    8.5991   -8.3886    0.0000 C   0  0  1  0  0  0  0  0  0  0  0  0
   11.4300    5.0151    0.0000 C   0  0  0  0  0  0  0  0  0  0  0  0
    9.7080    4.8289    0.0000 C   0  0  0  0  0  0  0  0  0  0  0  0
    7.7331   -8.8886    0.0000 C   0  0  2  0  0  0  0  0  0  0  0  0
    6.8671   -7.3886    0.0000 C   0  0  1  0  0  0  0  0  0  0  0  0
    6.8671   -8.3886    0.0000 C   0  0  1  0  0  0  0  0  0  0  0  0
    6.0010   -6.8886    0.0000 C   0  0  0  0  0  0  0  0  0  0  0  0
   10.3312   -8.3886    0.0000 C   0  0  2  0  0  0  0  0  0  0  0  0
   12.1298    6.5995    0.0000 C   0  0  2  0  0  0  0  0  0  0  0  0
   11.1972   -8.8886    0.0000 C   0  0  1  0  0  0  0  0  0  0  0  0
    5.1350   -8.3886    0.0000 C   0  0  2  0  0  0  0  0  0  0  0  0
   13.0446    6.1955    0.0000 C   0  0  1  0  0  0  0  0  0  0  0  0
   12.0632   -8.3886    0.0000 C   0  0  1  0  0  0  0  0  0  0  0  0
   11.1972   -6.8886    0.0000 C   0  0  2  0  0  0  0  0  0  0  0  0
    4.2690   -8.8886    0.0000 C   0  0  1  0  0  0  0  0  0  0  0  0
   12.0632   -7.3886    0.0000 C   0  0  2  0  0  0  0  0  0  0  0  0
   13.8518    6.7857    0.0000 C   0  0  2  0  0  0  0  0  0  0  0  0
   12.8296    8.1839    0.0000 C   0  0  1  0  0  0  0  0  0  0  0  0
    3.4030   -8.3886    0.0000 C   0  0  1  0  0  0  0  0  0  0  0  0
   13.7443    7.7799    0.0000 C   0  0  1  0  0  0  0  0  0  0  0  0
    4.2690   -6.8886    0.0000 C   0  0  2  0  0  0  0  0  0  0  0  0
    3.4030   -7.3886    0.0000 C   0  0  2  0  0  0  0  0  0  0  0  0
   11.1972   -5.8886    0.0000 C   0  0  0  0  0  0  0  0  0  0  0  0
   12.7221    9.1782    0.0000 C   0  0  0  0  0  0  0  0  0  0  0  0
    4.2690   -5.8886    0.0000 C   0  0  0  0  0  0  0  0  0  0  0  0
   11.1406   -1.5301    0.0000 H   0  0  0  0  0  0  0  0  0  0  0  0
   11.0974   -1.7548    0.0000 H   0  0  0  0  0  0  0  0  0  0  0  0
   10.2366   -3.1195    0.0000 H   0  0  0  0  0  0  0  0  0  0  0  0
    8.8546    0.1914    0.0000 H   0  0  0  0  0  0  0  0  0  0  0  0
   11.4642   -1.0179    0.0000 H   0  0  0  0  0  0  0  0  0  0  0  0
   11.6321   -0.2056    0.0000 H   0  0  0  0  0  0  0  0  0  0  0  0
    8.4160   -0.6132    0.0000 H   0  0  0  0  0  0  0  0  0  0  0  0
    8.0201   -1.3050    0.0000 H   0  0  0  0  0  0  0  0  0  0  0  0
   11.5330    0.4810    0.0000 H   0  0  0  0  0  0  0  0  0  0  0  0
    8.0232   -2.0897    0.0000 H   0  0  0  0  0  0  0  0  0  0  0  0
    8.4244   -2.7784    0.0000 H   0  0  0  0  0  0  0  0  0  0  0  0
   11.8902   -2.7907    0.0000 H   0  0  0  0  0  0  0  0  0  0  0  0
   11.4804   -2.1056    0.0000 H   0  0  0  0  0  0  0  0  0  0  0  0
    8.9344    0.3431    0.0000 H   0  0  0  0  0  0  0  0  0  0  0  0
    8.0883    0.1129    0.0000 H   0  0  0  0  0  0  0  0  0  0  0  0
    8.3185   -0.7332    0.0000 H   0  0  0  0  0  0  0  0  0  0  0  0
    8.3379   -3.6714    0.0000 H   0  0  0  0  0  0  0  0  0  0  0  0
    7.9281   -4.3565    0.0000 H   0  0  0  0  0  0  0  0  0  0  0  0
   11.8295   -4.0391    0.0000 H   0  0  0  0  0  0  0  0  0  0  0  0
    8.9380   -2.6942    0.0000 H   0  0  0  0  0  0  0  0  0  0  0  0
    8.0902   -2.9178    0.0000 H   0  0  0  0  0  0  0  0  0  0  0  0
    8.3139   -3.7656    0.0000 H   0  0  0  0  0  0  0  0  0  0  0  0
   10.6185   -5.9237    0.0000 H   0  0  0  0  0  0  0  0  0  0  0  0
   11.0123   -5.2293    0.0000 H   0  0  0  0  0  0  0  0  0  0  0  0
    7.9180   -5.2293    0.0000 H   0  0  0  0  0  0  0  0  0  0  0  0
    8.3118   -5.9237    0.0000 H   0  0  0  0  0  0  0  0  0  0  0  0
   10.0027   -6.1975    0.0000 H   0  0  0  0  0  0  0  0  0  0  0  0
    8.4473    1.9968    0.0000 H   0  0  0  0  0  0  0  0  0  0  0  0
    7.7125    1.5184    0.0000 H   0  0  0  0  0  0  0  0  0  0  0  0
    8.1910    0.7836    0.0000 H   0  0  0  0  0  0  0  0  0  0  0  0
    9.6496    3.3970    0.0000 H   0  0  0  0  0  0  0  0  0  0  0  0
    9.3276    2.6678    0.0000 H   0  0  0  0  0  0  0  0  0  0  0  0
   11.0037    2.8743    0.0000 H   0  0  0  0  0  0  0  0  0  0  0  0
   11.3258    3.6034    0.0000 H   0  0  0  0  0  0  0  0  0  0  0  0
    8.5991   -6.7686    0.0000 H   0  0  0  0  0  0  0  0  0  0  0  0
   10.1223    4.0590    0.0000 H   0  0  0  0  0  0  0  0  0  0  0  0
    8.5991   -9.0086    0.0000 H   0  0  0  0  0  0  0  0  0  0  0  0
   11.7035    4.4587    0.0000 H   0  0  0  0  0  0  0  0  0  0  0  0
   12.0255    5.1878    0.0000 H   0  0  0  0  0  0  0  0  0  0  0  0
    7.1962   -9.1986    0.0000 H   0  0  0  0  0  0  0  0  0  0  0  0
    9.9585    5.3961    0.0000 H   0  0  0  0  0  0  0  0  0  0  0  0
    9.1409    5.0794    0.0000 H   0  0  0  0  0  0  0  0  0  0  0  0
    9.4576    4.2618    0.0000 H   0  0  0  0  0  0  0  0  0  0  0  0
    6.8671   -6.7686    0.0000 H   0  0  0  0  0  0  0  0  0  0  0  0
    6.3301   -8.0786    0.0000 H   0  0  0  0  0  0  0  0  0  0  0  0
    5.3905   -6.7809    0.0000 H   0  0  0  0  0  0  0  0  0  0  0  0
    5.7890   -7.4712    0.0000 H   0  0  0  0  0  0  0  0  0  0  0  0
    9.7942   -8.0786    0.0000 H   0  0  0  0  0  0  0  0  0  0  0  0
    7.1962  -10.1986    0.0000 H   0  0  0  0  0  0  0  0  0  0  0  0
   12.1964    5.9831    0.0000 H   0  0  0  0  0  0  0  0  0  0  0  0
   11.7341   -9.1986    0.0000 H   0  0  0  0  0  0  0  0  0  0  0  0
    5.1350   -9.0086    0.0000 H   0  0  0  0  0  0  0  0  0  0  0  0
   13.6117    5.9450    0.0000 H   0  0  0  0  0  0  0  0  0  0  0  0
   12.6002   -8.0786    0.0000 H   0  0  0  0  0  0  0  0  0  0  0  0
    5.4641   -5.5786    0.0000 H   0  0  0  0  0  0  0  0  0  0  0  0
   10.6603   -6.5786    0.0000 H   0  0  0  0  0  0  0  0  0  0  0  0
    3.7320   -9.1986    0.0000 H   0  0  0  0  0  0  0  0  0  0  0  0
   12.0632   -6.7686    0.0000 H   0  0  0  0  0  0  0  0  0  0  0  0
   14.3523    7.1517    0.0000 H   0  0  0  0  0  0  0  0  0  0  0  0
   12.2624    8.4344    0.0000 H   0  0  0  0  0  0  0  0  0  0  0  0
    2.8660   -8.0786    0.0000 H   0  0  0  0  0  0  0  0  0  0  0  0
   13.6777    8.3964    0.0000 H   0  0  0  0  0  0  0  0  0  0  0  0
   11.7341  -10.1986    0.0000 H   0  0  0  0  0  0  0  0  0  0  0  0
    4.8059   -6.5786    0.0000 H   0  0  0  0  0  0  0  0  0  0  0  0
    3.4030   -6.7686    0.0000 H   0  0  0  0  0  0  0  0  0  0  0  0
   11.8172   -5.8886    0.0000 H   0  0  0  0  0  0  0  0  0  0  0  0
   11.1972   -5.2686    0.0000 H   0  0  0  0  0  0  0  0  0  0  0  0
   10.5772   -5.8886    0.0000 H   0  0  0  0  0  0  0  0  0  0  0  0
   13.7192    4.9508    0.0000 H   0  0  0  0  0  0  0  0  0  0  0  0
   13.4662   -8.5786    0.0000 H   0  0  0  0  0  0  0  0  0  0  0  0
    3.7320  -10.1986    0.0000 H   0  0  0  0  0  0  0  0  0  0  0  0
   13.3407    9.1367    0.0000 H   0  0  0  0  0  0  0  0  0  0  0  0
   12.8702    9.7802    0.0000 H   0  0  0  0  0  0  0  0  0  0  0  0
   13.4662   -7.1986    0.0000 H   0  0  0  0  0  0  0  0  0  0  0  0
   15.2671    6.7476    0.0000 H   0  0  0  0  0  0  0  0  0  0  0  0
    4.8890   -5.8886    0.0000 H   0  0  0  0  0  0  0  0  0  0  0  0
    4.2690   -5.2686    0.0000 H   0  0  0  0  0  0  0  0  0  0  0  0
    3.6490   -5.8886    0.0000 H   0  0  0  0  0  0  0  0  0  0  0  0
    2.0000   -8.5786    0.0000 H   0  0  0  0  0  0  0  0  0  0  0  0
   14.4849    8.9866    0.0000 H   0  0  0  0  0  0  0  0  0  0  0  0
    2.5369   -6.2686    0.0000 H   0  0  0  0  0  0  0  0  0  0  0  0
   11.7406   10.1986    0.0000 H   0  0  0  0  0  0  0  0  0  0  0  0
  1 29  1  0  0  0  0
  1 39  1  0  0  0  0
 42  2  1  1  0  0  0
 46  2  1  1  0  0  0
  3 46  1  0  0  0  0
  3 52  1  0  0  0  0
 48  4  1  6  0  0  0
 55  4  1  6  0  0  0
  5 49  1  0  0  0  0
 56  5  1  6  0  0  0
 51  6  1  1  0  0  0
  6121  1  0  0  0  0
 53  7  1  6  0  0  0
 58  7  1  1  0  0  0
  8 55  1  0  0  0  0
  8 61  1  0  0  0  0
  9 54  1  0  0  0  0
  9127  1  0  0  0  0
 10 56  1  0  0  0  0
 10 65  1  0  0  0  0
 11 58  1  0  0  0  0
 11 68  1  0  0  0  0
 57 12  1  1  0  0  0
 12135  1  0  0  0  0
 59 13  1  1  0  0  0
 13141  1  0  0  0  0
 60 14  1  1  0  0  0
 14142  1  0  0  0  0
 62 15  1  6  0  0  0
 15143  1  0  0  0  0
 63 16  1  6  0  0  0
 16146  1  0  0  0  0
 64 17  1  6  0  0  0
 17147  1  0  0  0  0
 66 18  1  6  0  0  0
 18151  1  0  0  0  0
 67 19  1  1  0  0  0
 19152  1  0  0  0  0
 69 20  1  1  0  0  0
 20153  1  0  0  0  0
 21 71  1  0  0  0  0
 21154  1  0  0  0  0
 22 23  1  0  0  0  0
 22 26  1  0  0  0  0
 22 28  1  0  0  0  0
 22 33  1  1  0  0  0
 23 24  1  0  0  0  0
 23 27  1  0  0  0  0
 23 73  1  6  0  0  0
 24 25  1  0  0  0  0
 24 32  1  0  0  0  0
 24 74  1  1  0  0  0
 25 30  1  0  0  0  0
 25 31  1  0  0  0  0
 25 75  1  6  0  0  0
 26 29  1  0  0  0  0
 26 35  1  0  0  0  0
 26 76  1  6  0  0  0
 27 29  1  0  0  0  0
 27 77  1  0  0  0  0
 27 78  1  0  0  0  0
 28 31  1  0  0  0  0
 28 79  1  0  0  0  0
 28 80  1  0  0  0  0
 29 81  1  6  0  0  0
 30 34  1  0  0  0  0
 30 36  1  0  0  0  0
 30 38  1  1  0  0  0
 31 82  1  0  0  0  0
 31 83  1  0  0  0  0
 32 37  1  0  0  0  0
 32 84  1  0  0  0  0
 32 85  1  0  0  0  0
 33 86  1  0  0  0  0
 33 87  1  0  0  0  0
 33 88  1  0  0  0  0
 34 37  2  0  0  0  0
 34 40  1  0  0  0  0
 35 39  2  0  0  0  0
 35 43  1  0  0  0  0
 36 41  1  0  0  0  0
 36 89  1  0  0  0  0
 36 90  1  0  0  0  0
 37 91  1  0  0  0  0
 38 92  1  0  0  0  0
 38 93  1  0  0  0  0
 38 94  1  0  0  0  0
 39 44  1  0  0  0  0
 40 42  1  0  0  0  0
 40 95  1  0  0  0  0
 40 96  1  0  0  0  0
 41 42  1  0  0  0  0
 41 97  1  0  0  0  0
 41 98  1  0  0  0  0
 42 99  1  0  0  0  0
 43100  1  0  0  0  0
 43101  1  0  0  0  0
 43102  1  0  0  0  0
 44 45  1  0  0  0  0
 44103  1  0  0  0  0
 44104  1  0  0  0  0
 45 47  1  0  0  0  0
 45105  1  0  0  0  0
 45106  1  0  0  0  0
 46 48  1  0  0  0  0
 46107  1  0  0  0  0
 47 49  1  0  0  0  0
 47 50  1  1  0  0  0
 47108  1  0  0  0  0
 48 51  1  0  0  0  0
 48109  1  0  0  0  0
 49110  1  0  0  0  0
 49111  1  0  0  0  0
 50113  1  0  0  0  0
 50114  1  0  0  0  0
 50115  1  0  0  0  0
 51 53  1  0  0  0  0
 51112  1  0  0  0  0
 52 53  1  0  0  0  0
 52 54  1  1  0  0  0
 52116  1  0  0  0  0
 53117  1  0  0  0  0
 54118  1  0  0  0  0
 54119  1  0  0  0  0
 55 57  1  0  0  0  0
 55120  1  0  0  0  0
 56 59  1  0  0  0  0
 56122  1  0  0  0  0
 57 60  1  0  0  0  0
 57123  1  0  0  0  0
 58 62  1  0  0  0  0
 58124  1  0  0  0  0
 59 64  1  0  0  0  0
 59125  1  0  0  0  0
 60 63  1  0  0  0  0
 60126  1  0  0  0  0
 61 63  1  0  0  0  0
 61 70  1  1  0  0  0
 61128  1  0  0  0  0
 62 66  1  0  0  0  0
 62129  1  0  0  0  0
 63130  1  0  0  0  0
 64 67  1  0  0  0  0
 64131  1  0  0  0  0
 65 67  1  0  0  0  0
 65 71  1  6  0  0  0
 65132  1  0  0  0  0
 66 69  1  0  0  0  0
 66133  1  0  0  0  0
 67134  1  0  0  0  0
 68 69  1  0  0  0  0
 68 72  1  6  0  0  0
 68136  1  0  0  0  0
 69137  1  0  0  0  0
 70138  1  0  0  0  0
 70139  1  0  0  0  0
 70140  1  0  0  0  0
 71144  1  0  0  0  0
 71145  1  0  0  0  0
 72148  1  0  0  0  0
 72149  1  0  0  0  0
 72150  1  0  0  0  0
M  END
> <PUBCHEM_COMPOUND_CID>
21637110

> <PUBCHEM_COMPOUND_CANONICALIZED>
1

> <PUBCHEM_CACTVS_COMPLEXITY>
1930

> <PUBCHEM_CACTVS_HBOND_ACCEPTOR>
21

> <PUBCHEM_CACTVS_HBOND_DONOR>
12

> <PUBCHEM_CACTVS_ROTATABLE_BOND>
14

> <PUBCHEM_CACTVS_SUBSKEYS>
AAADcfB8PgAAAAAAAAAAAAAAAAAAAYIAAAA0aJEiAAAQAGCAAAAAGgAACAAADxSwgAMCCAAABgCAAiBCAAAACAAgIAAACAAAAAgREAIAAQAiQAAFwAAPAAPA4PwPgAAAAAAAAADAAAQAACAAAYAADAAAAA==

> <PUBCHEM_IUPAC_OPENEYE_NAME>
(2S,3R,4R,5R,6S)-2-[(2R,3S,4S,5R,6R)-4-hydroxy-2-(hydroxymethyl)-5-[(2S,3R,4R,5R,6S)-3,4,5-trihydroxy-6-methyl-tetrahydropyran-2-yl]oxy-6-[[(1S,2S,4S,8S,9S,12S,13R,16S)-7,9,13-trimethyl-6-[(3R)-3-methyl-4-[(2R,3R,4S,5S,6R)-3,4,5-trihydroxy-6-(hydroxymethyl)tetrahydropyran-2-yl]oxy-butyl]-5-oxapentacyclo[10.8.0.02,9.04,8.013,18]icosa-6,18-dien-16-yl]oxy]tetrahydropyran-3-yl]oxy-6-methyl-tetrahydropyran-3,4,5-triol

> <PUBCHEM_IUPAC_CAS_NAME>
(2S,3R,4R,5R,6S)-2-[[(2R,3S,4S,5R,6R)-4-hydroxy-2-(hydroxymethyl)-5-[[(2S,3R,4R,5R,6S)-3,4,5-trihydroxy-6-methyl-2-oxanyl]oxy]-6-[[(1S,2S,4S,8S,9S,12S,13R,16S)-7,9,13-trimethyl-6-[(3R)-3-methyl-4-[[(2R,3R,4S,5S,6R)-3,4,5-trihydroxy-6-(hydroxymethyl)-2-oxanyl]oxy]butyl]-5-oxapentacyclo[10.8.0.02,9.04,8.013,18]eicosa-6,18-dien-16-yl]oxy]-3-oxanyl]oxy]-6-methyloxane-3,4,5-triol

> <PUBCHEM_IUPAC_NAME_MARKUP>
(2<I>S</I>,3<I>R</I>,4<I>R</I>,5<I>R</I>,6<I>S</I>)-2-[(2<I>R</I>,3<I>S</I>,4<I>S</I>,5<I>R</I>,6<I>R</I>)-4-hydroxy-2-(hydroxymethyl)-5-[(2<I>S</I>,3<I>R</I>,4<I>R</I>,5<I>R</I>,6<I>S</I>)-3,4,5-trihydroxy-6-methyloxan-2-yl]oxy-6-[[(1<I>S</I>,2<I>S</I>,4<I>S</I>,8<I>S</I>,9<I>S</I>,12<I>S</I>,13<I>R</I>,16<I>S</I>)-7,9,13-trimethyl-6-[(3<I>R</I>)-3-methyl-4-[(2<I>R</I>,3<I>R</I>,4<I>S</I>,5<I>S</I>,6<I>R</I>)-3,4,5-trihydroxy-6-(hydroxymethyl)oxan-2-yl]oxybutyl]-5-oxapentacyclo[10.8.0.0<SUP>2,9</SUP>.0<SUP>4,8</SUP>.0<SUP>13,18</SUP>]icosa-6,18-dien-16-yl]oxy]oxan-3-yl]oxy-6-methyloxane-3,4,5-triol

> <PUBCHEM_IUPAC_NAME>
(2S,3R,4R,5R,6S)-2-[(2R,3S,4S,5R,6R)-4-hydroxy-2-(hydroxymethyl)-5-[(2S,3R,4R,5R,6S)-3,4,5-trihydroxy-6-methyloxan-2-yl]oxy-6-[[(1S,2S,4S,8S,9S,12S,13R,16S)-7,9,13-trimethyl-6-[(3R)-3-methyl-4-[(2R,3R,4S,5S,6R)-3,4,5-trihydroxy-6-(hydroxymethyl)oxan-2-yl]oxybutyl]-5-oxapentacyclo[10.8.0.02,9.04,8.013,18]icosa-6,18-dien-16-yl]oxy]oxan-3-yl]oxy-6-methyloxane-3,4,5-triol

> <PUBCHEM_IUPAC_SYSTEMATIC_NAME>
(2S,3R,4R,5R,6S)-2-[(2R,3S,4S,5R,6R)-2-(hydroxymethyl)-6-[[(1S,2S,4S,8S,9S,12S,13R,16S)-6-[(3R)-4-[(2R,3R,4S,5S,6R)-6-(hydroxymethyl)-3,4,5-tris(oxidanyl)oxan-2-yl]oxy-3-methyl-butyl]-7,9,13-trimethyl-5-oxapentacyclo[10.8.0.02,9.04,8.013,18]icosa-6,18-dien-16-yl]oxy]-5-[(2S,3R,4R,5R,6S)-6-methyl-3,4,5-tris(oxidanyl)oxan-2-yl]oxy-4-oxidanyl-oxan-3-yl]oxy-6-methyl-oxane-3,4,5-triol

> <PUBCHEM_IUPAC_TRADITIONAL_NAME>
(2S,3R,4R,5R,6S)-2-[(2R,3S,4S,5R,6R)-4-hydroxy-2-methylol-5-[(2S,3R,4R,5R,6S)-3,4,5-trihydroxy-6-methyl-tetrahydropyran-2-yl]oxy-6-[[(1S,2S,4S,8S,9S,12S,13R,16S)-7,9,13-trimethyl-6-[(3R)-3-methyl-4-[(2R,3R,4S,5S,6R)-3,4,5-trihydroxy-6-methylol-tetrahydropyran-2-yl]oxy-butyl]-5-oxapentacyclo[10.8.0.02,9.04,8.013,18]eicosa-6,18-dien-16-yl]oxy]tetrahydropyran-3-yl]oxy-6-methyl-tetrahydropyran-3,4,5-triol

> <PUBCHEM_IUPAC_INCHI>
InChI=1S/C51H82O21/c1-20(19-64-46-40(60)39(59)36(56)31(17-52)69-46)7-10-29-21(2)33-30(68-29)16-28-26-9-8-24-15-25(11-13-50(24,5)27(26)12-14-51(28,33)6)67-49-45(72-48-42(62)38(58)35(55)23(4)66-48)43(63)44(32(18-53)70-49)71-47-41(61)37(57)34(54)22(3)65-47/h8,20,22-23,25-28,30-49,52-63H,7,9-19H2,1-6H3/t20-,22+,23+,25+,26-,27+,28+,30+,31-,32-,33+,34+,35+,36-,37-,38-,39+,40-,41-,42-,43+,44-,45-,46-,47+,48+,49-,50+,51+/m1/s1

> <PUBCHEM_IUPAC_INCHIKEY>
MDCUMTGKKLOMCW-XNVNDPJESA-N

> <PUBCHEM_XLOGP3_AA>
-1

> <PUBCHEM_EXACT_MASS>
1030.53485962

> <PUBCHEM_MOLECULAR_FORMULA>
C51H82O21

> <PUBCHEM_MOLECULAR_WEIGHT>
1031.2

> <PUBCHEM_OPENEYE_CAN_SMILES>
CC1C(C(C(C(O1)OC2C(OC(C(C2O)OC3C(C(C(C(O3)C)O)O)O)OC4CCC5(C6CCC7(C(C6CC=C5C4)CC8C7C(=C(O8)CCC(C)COC9C(C(C(C(O9)CO)O)O)O)C)C)C)CO)O)O)O

> <PUBCHEM_OPENEYE_ISO_SMILES>
C[C@H]1[C@@H]([C@H]([C@H]([C@@H](O1)O[C@@H]2[C@H](O[C@H]([C@@H]([C@H]2O)O[C@H]3[C@@H]([C@@H]([C@H]([C@@H](O3)C)O)O)O)O[C@H]4CC[C@@]5([C@H]6CC[C@]7([C@H]([C@@H]6CC=C5C4)C[C@H]8[C@@H]7C(=C(O8)CC[C@@H](C)CO[C@H]9[C@@H]([C@H]([C@@H]([C@H](O9)CO)O)O)O)C)C)C)CO)O)O)O

> <PUBCHEM_CACTVS_TPSA>
326

> <PUBCHEM_MONOISOTOPIC_WEIGHT>
1030.53485962

> <PUBCHEM_TOTAL_CHARGE>
0

> <PUBCHEM_HEAVY_ATOM_COUNT>
72

> <PUBCHEM_ATOM_DEF_STEREO_COUNT>
29

> <PUBCHEM_ATOM_UDEF_STEREO_COUNT>
0

> <PUBCHEM_BOND_DEF_STEREO_COUNT>
0

> <PUBCHEM_BOND_UDEF_STEREO_COUNT>
0

> <PUBCHEM_ISOTOPIC_ATOM_COUNT>
0

> <PUBCHEM_COMPONENT_COUNT>
1

> <PUBCHEM_CACTVS_TAUTO_COUNT>
-1

> <PUBCHEM_COORDINATE_TYPE>
1
5
255

> <PUBCHEM_BONDANNOTATIONS>
57  12  5
59  13  5
60  14  5
62  15  6
63  16  6
64  17  6
66  18  6
67  19  5
42  2  5
46  2  5
69  20  5
22  33  5
23  73  6
24  74  5
25  75  6
26  76  6
29  81  6
30  38  5
48  4  6
55  4  6
47  50  5
56  5  6
52  54  5
51  6  5
61  70  5
65  71  6
68  72  6
53  7  6
58  7  5

$$$$
