42607692
  -OEChem-01212206182D

 76 79  0     1  0  0  0  0  0999 V2000
    6.0010    3.2500    0.0000 O   0  0  0  0  0  0  0  0  0  0  0  0
    5.1350   -1.2500    0.0000 O   0  0  0  0  0  0  0  0  0  0  0  0
    8.5991    2.7500    0.0000 O   0  0  0  0  0  0  0  0  0  0  0  0
    4.2690    1.2500    0.0000 O   0  0  0  0  0  0  0  0  0  0  0  0
    8.5991    4.7500    0.0000 O   0  0  0  0  0  0  0  0  0  0  0  0
    2.5369    0.2500    0.0000 O   0  0  0  0  0  0  0  0  0  0  0  0
    6.8671    5.7500    0.0000 O   0  0  0  0  0  0  0  0  0  0  0  0
    2.5369   -1.7500    0.0000 O   0  0  0  0  0  0  0  0  0  0  0  0
    5.1350    1.7500    0.0000 O   0  0  0  0  0  0  0  0  0  0  0  0
    6.8671   -1.2500    0.0000 O   0  0  0  0  0  0  0  0  0  0  0  0
    8.5991    1.7500    0.0000 O   0  0  0  0  0  0  0  0  0  0  0  0
    5.1350    5.7500    0.0000 O   0  0  0  0  0  0  0  0  0  0  0  0
    3.4030   -3.2500    0.0000 O   0  0  0  0  0  0  0  0  0  0  0  0
    9.4651    0.2500    0.0000 O   0  0  0  0  0  0  0  0  0  0  0  0
    9.4651   -5.7500    0.0000 O   0  0  0  0  0  0  0  0  0  0  0  0
    6.8671    2.7500    0.0000 C   0  0  2  0  0  0  0  0  0  0  0  0
    5.1350   -0.2500    0.0000 C   0  0  2  0  0  0  0  0  0  0  0  0
    7.7331    3.2500    0.0000 C   0  0  3  0  0  0  0  0  0  0  0  0
    4.2690    0.2500    0.0000 C   0  0  3  0  0  0  0  0  0  0  0  0
    7.7331    4.2500    0.0000 C   0  0  2  0  0  0  0  0  0  0  0  0
    3.4030   -0.2500    0.0000 C   0  0  2  0  0  0  0  0  0  0  0  0
    6.8671    4.7500    0.0000 C   0  0  1  0  0  0  0  0  0  0  0  0
    3.4030   -1.2500    0.0000 C   0  0  1  0  0  0  0  0  0  0  0  0
    6.0010    4.2500    0.0000 C   0  0  3  0  0  0  0  0  0  0  0  0
    4.2690   -1.7500    0.0000 C   0  0  3  0  0  0  0  0  0  0  0  0
    6.8671    1.7500    0.0000 C   0  0  0  0  0  0  0  0  0  0  0  0
    6.0010    0.2500    0.0000 C   0  0  0  0  0  0  0  0  0  0  0  0
    6.0010    1.2500    0.0000 C   0  0  0  0  0  0  0  0  0  0  0  0
    6.8671   -0.2500    0.0000 C   0  0  0  0  0  0  0  0  0  0  0  0
    7.7331    1.2500    0.0000 C   0  0  0  0  0  0  0  0  0  0  0  0
    5.1350    4.7500    0.0000 C   0  0  0  0  0  0  0  0  0  0  0  0
    4.2690   -2.7500    0.0000 C   0  0  0  0  0  0  0  0  0  0  0  0
    7.7331    0.2500    0.0000 C   0  0  0  0  0  0  0  0  0  0  0  0
    8.5991   -0.2500    0.0000 C   0  0  0  0  0  0  0  0  0  0  0  0
    8.5991   -1.2500    0.0000 C   0  0  0  0  0  0  0  0  0  0  0  0
    9.4651   -1.7500    0.0000 C   0  0  0  0  0  0  0  0  0  0  0  0
    9.4651   -2.7500    0.0000 C   0  0  0  0  0  0  0  0  0  0  0  0
   10.3312   -3.2500    0.0000 C   0  0  0  0  0  0  0  0  0  0  0  0
    8.5991   -3.2500    0.0000 C   0  0  0  0  0  0  0  0  0  0  0  0
   10.3312   -4.2500    0.0000 C   0  0  0  0  0  0  0  0  0  0  0  0
    8.5991   -4.2500    0.0000 C   0  0  0  0  0  0  0  0  0  0  0  0
    9.4651   -4.7500    0.0000 C   0  0  0  0  0  0  0  0  0  0  0  0
    6.1309    2.3250    0.0000 H   0  0  0  0  0  0  0  0  0  0  0  0
    5.8711   -0.6750    0.0000 H   0  0  0  0  0  0  0  0  0  0  0  0
    7.7331    2.6300    0.0000 H   0  0  0  0  0  0  0  0  0  0  0  0
    4.8059    0.5600    0.0000 H   0  0  0  0  0  0  0  0  0  0  0  0
    7.7331    4.8700    0.0000 H   0  0  0  0  0  0  0  0  0  0  0  0
    3.4030    0.3700    0.0000 H   0  0  0  0  0  0  0  0  0  0  0  0
    6.3301    5.0600    0.0000 H   0  0  0  0  0  0  0  0  0  0  0  0
    3.4030   -1.8700    0.0000 H   0  0  0  0  0  0  0  0  0  0  0  0
    5.4641    3.9400    0.0000 H   0  0  0  0  0  0  0  0  0  0  0  0
    4.8059   -2.0600    0.0000 H   0  0  0  0  0  0  0  0  0  0  0  0
    4.5244    4.8577    0.0000 H   0  0  0  0  0  0  0  0  0  0  0  0
    4.9230    4.1674    0.0000 H   0  0  0  0  0  0  0  0  0  0  0  0
    4.4810   -3.3326    0.0000 H   0  0  0  0  0  0  0  0  0  0  0  0
    4.8796   -2.6423    0.0000 H   0  0  0  0  0  0  0  0  0  0  0  0
    9.1360    3.0600    0.0000 H   0  0  0  0  0  0  0  0  0  0  0  0
    3.7320    1.5600    0.0000 H   0  0  0  0  0  0  0  0  0  0  0  0
    8.5991    5.3700    0.0000 H   0  0  0  0  0  0  0  0  0  0  0  0
    2.0000   -0.0600    0.0000 H   0  0  0  0  0  0  0  0  0  0  0  0
    7.4040    6.0600    0.0000 H   0  0  0  0  0  0  0  0  0  0  0  0
    2.0000   -1.4400    0.0000 H   0  0  0  0  0  0  0  0  0  0  0  0
    5.1350    2.3700    0.0000 H   0  0  0  0  0  0  0  0  0  0  0  0
    7.4040   -1.5600    0.0000 H   0  0  0  0  0  0  0  0  0  0  0  0
    9.1360    1.4400    0.0000 H   0  0  0  0  0  0  0  0  0  0  0  0
    7.9885   -1.1423    0.0000 H   0  0  0  0  0  0  0  0  0  0  0  0
    8.3871   -1.8326    0.0000 H   0  0  0  0  0  0  0  0  0  0  0  0
    4.5981    6.0600    0.0000 H   0  0  0  0  0  0  0  0  0  0  0  0
    3.4030   -3.8700    0.0000 H   0  0  0  0  0  0  0  0  0  0  0  0
   10.0757   -1.8577    0.0000 H   0  0  0  0  0  0  0  0  0  0  0  0
    9.6772   -1.1674    0.0000 H   0  0  0  0  0  0  0  0  0  0  0  0
   10.8681   -2.9400    0.0000 H   0  0  0  0  0  0  0  0  0  0  0  0
    8.0622   -2.9400    0.0000 H   0  0  0  0  0  0  0  0  0  0  0  0
   10.8681   -4.5600    0.0000 H   0  0  0  0  0  0  0  0  0  0  0  0
    8.0622   -4.5600    0.0000 H   0  0  0  0  0  0  0  0  0  0  0  0
   10.0021   -6.0600    0.0000 H   0  0  0  0  0  0  0  0  0  0  0  0
  1 16  1  0  0  0  0
  1 24  1  0  0  0  0
  2 17  1  0  0  0  0
  2 25  1  0  0  0  0
  3 18  1  0  0  0  0
  3 57  1  0  0  0  0
  4 19  1  0  0  0  0
  4 58  1  0  0  0  0
 20  5  1  6  0  0  0
  5 59  1  0  0  0  0
 21  6  1  6  0  0  0
  6 60  1  0  0  0  0
 22  7  1  1  0  0  0
  7 61  1  0  0  0  0
 23  8  1  1  0  0  0
  8 62  1  0  0  0  0
  9 28  1  0  0  0  0
  9 63  1  0  0  0  0
 10 29  1  0  0  0  0
 10 64  1  0  0  0  0
 11 30  1  0  0  0  0
 11 65  1  0  0  0  0
 12 31  1  0  0  0  0
 12 68  1  0  0  0  0
 13 32  1  0  0  0  0
 13 69  1  0  0  0  0
 14 34  2  0  0  0  0
 15 42  1  0  0  0  0
 15 76  1  0  0  0  0
 16 18  1  0  0  0  0
 16 26  1  0  0  0  0
 16 43  1  1  0  0  0
 17 19  1  0  0  0  0
 17 27  1  0  0  0  0
 17 44  1  1  0  0  0
 18 20  1  0  0  0  0
 18 45  1  0  0  0  0
 19 21  1  0  0  0  0
 19 46  1  0  0  0  0
 20 22  1  0  0  0  0
 20 47  1  0  0  0  0
 21 23  1  0  0  0  0
 21 48  1  0  0  0  0
 22 24  1  0  0  0  0
 22 49  1  0  0  0  0
 23 25  1  0  0  0  0
 23 50  1  0  0  0  0
 24 31  1  0  0  0  0
 24 51  1  0  0  0  0
 25 32  1  0  0  0  0
 25 52  1  0  0  0  0
 26 28  2  0  0  0  0
 26 30  1  0  0  0  0
 27 28  1  0  0  0  0
 27 29  2  0  0  0  0
 29 33  1  0  0  0  0
 30 33  2  0  0  0  0
 31 53  1  0  0  0  0
 31 54  1  0  0  0  0
 32 55  1  0  0  0  0
 32 56  1  0  0  0  0
 33 34  1  0  0  0  0
 34 35  1  0  0  0  0
 35 36  1  0  0  0  0
 35 66  1  0  0  0  0
 35 67  1  0  0  0  0
 36 37  1  0  0  0  0
 36 70  1  0  0  0  0
 36 71  1  0  0  0  0
 37 38  2  0  0  0  0
 37 39  1  0  0  0  0
 38 40  1  0  0  0  0
 38 72  1  0  0  0  0
 39 41  2  0  0  0  0
 39 73  1  0  0  0  0
 40 42  2  0  0  0  0
 40 74  1  0  0  0  0
 41 42  1  0  0  0  0
 41 75  1  0  0  0  0
M  END
> <PUBCHEM_COMPOUND_CID>
42607692

> <PUBCHEM_COMPOUND_CANONICALIZED>
1

> <PUBCHEM_CACTVS_COMPLEXITY>
836

> <PUBCHEM_CACTVS_HBOND_ACCEPTOR>
15

> <PUBCHEM_CACTVS_HBOND_DONOR>
12

> <PUBCHEM_CACTVS_ROTATABLE_BOND>
8

> <PUBCHEM_CACTVS_SUBSKEYS>
AAADcfB4PAAAAAAAAAAAAAAAAAAAAAAAAAA0aIEAAAAAAAABQAAAGgAACAAADBSgmAIwBoAABgCIAqBSAAACAAAkIAAIiAEGCMgJNzaCNRqCcUAl4BULuQfI7PzOIAACCAAIAABAAAQQABAAAAAAAAAAAA==

> <PUBCHEM_IUPAC_OPENEYE_NAME>
3-(4-hydroxyphenyl)-1-[2,4,6-trihydroxy-3,5-bis[(2S,4R,5S)-3,4,5-trihydroxy-6-(hydroxymethyl)tetrahydropyran-2-yl]phenyl]propan-1-one

> <PUBCHEM_IUPAC_CAS_NAME>
3-(4-hydroxyphenyl)-1-[2,4,6-trihydroxy-3,5-bis[(2S,4R,5S)-3,4,5-trihydroxy-6-(hydroxymethyl)-2-oxanyl]phenyl]-1-propanone

> <PUBCHEM_IUPAC_NAME_MARKUP>
3-(4-hydroxyphenyl)-1-[2,4,6-trihydroxy-3,5-bis[(2<I>S</I>,4<I>R</I>,5<I>S</I>)-3,4,5-trihydroxy-6-(hydroxymethyl)oxan-2-yl]phenyl]propan-1-one

> <PUBCHEM_IUPAC_NAME>
3-(4-hydroxyphenyl)-1-[2,4,6-trihydroxy-3,5-bis[(2S,4R,5S)-3,4,5-trihydroxy-6-(hydroxymethyl)oxan-2-yl]phenyl]propan-1-one

> <PUBCHEM_IUPAC_SYSTEMATIC_NAME>
1-[3,5-bis[(2S,4R,5S)-6-(hydroxymethyl)-3,4,5-tris(oxidanyl)oxan-2-yl]-2,4,6-tris(oxidanyl)phenyl]-3-(4-hydroxyphenyl)propan-1-one

> <PUBCHEM_IUPAC_TRADITIONAL_NAME>
3-(4-hydroxyphenyl)-1-[2,4,6-trihydroxy-3,5-bis[(2S,4R,5S)-3,4,5-trihydroxy-6-methylol-tetrahydropyran-2-yl]phenyl]propan-1-one

> <PUBCHEM_IUPAC_INCHI>
InChI=1S/C27H34O15/c28-7-12-17(32)22(37)24(39)26(41-12)15-19(34)14(11(31)6-3-9-1-4-10(30)5-2-9)20(35)16(21(15)36)27-25(40)23(38)18(33)13(8-29)42-27/h1-2,4-5,12-13,17-18,22-30,32-40H,3,6-8H2/t12?,13?,17-,18-,22+,23+,24?,25?,26+,27+/m1/s1

> <PUBCHEM_IUPAC_INCHIKEY>
WAWHTTXPRUWFCZ-WKKNATGFSA-N

> <PUBCHEM_XLOGP3_AA>
-2.3

> <PUBCHEM_EXACT_MASS>
598.18977037

> <PUBCHEM_MOLECULAR_FORMULA>
C27H34O15

> <PUBCHEM_MOLECULAR_WEIGHT>
598.5

> <PUBCHEM_OPENEYE_CAN_SMILES>
C1=CC(=CC=C1CCC(=O)C2=C(C(=C(C(=C2O)C3C(C(C(C(O3)CO)O)O)O)O)C4C(C(C(C(O4)CO)O)O)O)O)O

> <PUBCHEM_OPENEYE_ISO_SMILES>
C1=CC(=CC=C1CCC(=O)C2=C(C(=C(C(=C2O)[C@H]3C([C@H]([C@@H](C(O3)CO)O)O)O)O)[C@H]4C([C@H]([C@@H](C(O4)CO)O)O)O)O)O

> <PUBCHEM_CACTVS_TPSA>
278

> <PUBCHEM_MONOISOTOPIC_WEIGHT>
598.18977037

> <PUBCHEM_TOTAL_CHARGE>
0

> <PUBCHEM_HEAVY_ATOM_COUNT>
42

> <PUBCHEM_ATOM_DEF_STEREO_COUNT>
6

> <PUBCHEM_ATOM_UDEF_STEREO_COUNT>
4

> <PUBCHEM_BOND_DEF_STEREO_COUNT>
0

> <PUBCHEM_BOND_UDEF_STEREO_COUNT>
0

> <PUBCHEM_ISOTOPIC_ATOM_COUNT>
0

> <PUBCHEM_COMPONENT_COUNT>
1

> <PUBCHEM_CACTVS_TAUTO_COUNT>
-1

> <PUBCHEM_COORDINATE_TYPE>
1
5
255

> <PUBCHEM_BONDANNOTATIONS>
16  43  5
17  44  5
24  31  3
25  32  3
26  28  8
26  30  8
27  28  8
27  29  8
29  33  8
18  3  3
30  33  8
37  38  8
37  39  8
38  40  8
39  41  8
19  4  3
40  42  8
41  42  8
20  5  6
21  6  6
22  7  5
23  8  5

$$$$
