44250225
  -OEChem-01142201122D

141148  0     1  0  0  0  0  0999 V2000
    9.4651    0.6850    0.0000 O   0  0  0  0  0  0  0  0  0  0  0  0
   11.2862   -1.0858    0.0000 O   0  0  0  0  0  0  0  0  0  0  0  0
   18.3783    3.8059    0.0000 O   0  0  0  0  0  0  0  0  0  0  0  0
   17.5296    2.2960    0.0000 O   0  0  0  0  0  0  0  0  0  0  0  0
    8.5991    2.1850    0.0000 O   0  0  0  0  0  0  0  0  0  0  0  0
    7.7331   -0.3150    0.0000 O   0  0  0  0  0  0  0  0  0  0  0  0
    6.0010    0.6850    0.0000 O   0  0  0  0  0  0  0  0  0  0  0  0
    6.0010    2.6850    0.0000 O   0  0  0  0  0  0  0  0  0  0  0  0
    6.0010   -0.3150    0.0000 O   0  0  0  0  0  0  0  0  0  0  0  0
    7.7331   -2.3150    0.0000 O   0  0  0  0  0  0  0  0  0  0  0  0
    6.0010   -3.3150    0.0000 O   0  0  0  0  0  0  0  0  0  0  0  0
    4.2690   -2.3150    0.0000 O   0  0  0  0  0  0  0  0  0  0  0  0
    4.2690   -3.3150    0.0000 O   0  0  0  0  0  0  0  0  0  0  0  0
    6.0010   -5.3150    0.0000 O   0  0  0  0  0  0  0  0  0  0  0  0
    4.2690   -6.3150    0.0000 O   0  0  0  0  0  0  0  0  0  0  0  0
    2.5369   -5.3150    0.0000 O   0  0  0  0  0  0  0  0  0  0  0  0
    5.1350   -6.8150    0.0000 O   0  0  0  0  0  0  0  0  0  0  0  0
   13.9862    2.2548    0.0000 C   0  0  2  0  0  0  0  0  0  0  0  0
   13.1182    2.7515    0.0000 C   0  0  1  0  0  0  0  0  0  0  0  0
   12.2102    2.2411    0.0000 C   0  0  2  0  0  0  0  0  0  0  0  0
   14.8503    2.7581    0.0000 C   0  0  1  0  0  0  0  0  0  0  0  0
   12.2062    1.1995    0.0000 C   0  0  2  0  0  0  0  0  0  0  0  0
   14.0063    1.2134    0.0000 C   0  0  0  0  0  0  0  0  0  0  0  0
   11.2729    0.6462    0.0000 C   0  0  1  0  0  0  0  0  0  0  0  0
   13.1103    0.6822    0.0000 C   0  0  0  0  0  0  0  0  0  0  0  0
   14.8464    3.7581    0.0000 C   0  0  0  0  0  0  0  0  0  0  0  0
   11.2812    2.8016    0.0000 C   0  0  0  0  0  0  0  0  0  0  0  0
   13.1144    3.7514    0.0000 C   0  0  0  0  0  0  0  0  0  0  0  0
   15.7383    4.2962    0.0000 C   0  0  1  0  0  0  0  0  0  0  0  0
   15.7463    2.2269    0.0000 C   0  0  0  0  0  0  0  0  0  0  0  0
   16.6463    3.7859    0.0000 C   0  0  1  0  0  0  0  0  0  0  0  0
   10.3312    1.1850    0.0000 C   0  0  2  0  0  0  0  0  0  0  0  0
   14.6319    1.4912    0.0000 C   0  0  0  0  0  0  0  0  0  0  0  0
   16.6503    2.7443    0.0000 C   0  0  0  0  0  0  0  0  0  0  0  0
   12.2140    3.2411    0.0000 C   0  0  0  0  0  0  0  0  0  0  0  0
   10.3353    2.2700    0.0000 C   0  0  0  0  0  0  0  0  0  0  0  0
   13.9785    4.2548    0.0000 C   0  0  0  0  0  0  0  0  0  0  0  0
   15.1959    1.8198    0.0000 C   0  0  0  0  0  0  0  0  0  0  0  0
   15.7090    5.3808    0.0000 C   0  0  0  0  0  0  0  0  0  0  0  0
   17.5881    4.3248    0.0000 C   0  0  0  0  0  0  0  0  0  0  0  0
   16.6380    5.9413    0.0000 C   0  0  0  0  0  0  0  0  0  0  0  0
   11.7795   -0.2160    0.0000 C   0  0  0  0  0  0  0  0  0  0  0  0
   10.7796   -0.2237    0.0000 C   0  0  0  0  0  0  0  0  0  0  0  0
   17.5839    5.4097    0.0000 C   0  0  0  0  0  0  0  0  0  0  0  0
   17.5181    3.2959    0.0000 C   0  0  0  0  0  0  0  0  0  0  0  0
   17.1246    6.8150    0.0000 C   0  0  0  0  0  0  0  0  0  0  0  0
   16.1247    6.7996    0.0000 C   0  0  0  0  0  0  0  0  0  0  0  0
    8.5991    1.1850    0.0000 C   0  0  2  0  0  0  0  0  0  0  0  0
    7.7331    0.6850    0.0000 C   0  0  1  0  0  0  0  0  0  0  0  0
    6.8671    1.1850    0.0000 C   0  0  2  0  0  0  0  0  0  0  0  0
    7.7331    2.6850    0.0000 C   0  0  0  0  0  0  0  0  0  0  0  0
    6.8671    2.1850    0.0000 C   0  0  2  0  0  0  0  0  0  0  0  0
    6.8671   -0.8150    0.0000 C   0  0  2  0  0  0  0  0  0  0  0  0
    6.8671   -1.8150    0.0000 C   0  0  1  0  0  0  0  0  0  0  0  0
    6.0010   -2.3150    0.0000 C   0  0  1  0  0  0  0  0  0  0  0  0
    5.1350   -0.8150    0.0000 C   0  0  2  0  0  0  0  0  0  0  0  0
    5.1350   -1.8150    0.0000 C   0  0  2  0  0  0  0  0  0  0  0  0
    4.2690   -0.3150    0.0000 C   0  0  0  0  0  0  0  0  0  0  0  0
    5.1350   -3.8150    0.0000 C   0  0  2  0  0  0  0  0  0  0  0  0
    5.1350   -4.8150    0.0000 C   0  0  1  0  0  0  0  0  0  0  0  0
    4.2690   -5.3150    0.0000 C   0  0  2  0  0  0  0  0  0  0  0  0
    3.4030   -3.8150    0.0000 C   0  0  0  0  0  0  0  0  0  0  0  0
    3.4030   -4.8150    0.0000 C   0  0  2  0  0  0  0  0  0  0  0  0
    6.0010   -6.3150    0.0000 C   0  0  0  0  0  0  0  0  0  0  0  0
    6.8671   -6.8150    0.0000 C   0  0  0  0  0  0  0  0  0  0  0  0
   13.8527    3.1793    0.0000 H   0  0  0  0  0  0  0  0  0  0  0  0
   12.2127    0.3495    0.0000 H   0  0  0  0  0  0  0  0  0  0  0  0
   14.2265    0.6338    0.0000 H   0  0  0  0  0  0  0  0  0  0  0  0
   14.6150    1.3312    0.0000 H   0  0  0  0  0  0  0  0  0  0  0  0
   12.7148    0.2047    0.0000 H   0  0  0  0  0  0  0  0  0  0  0  0
   13.5130    0.2108    0.0000 H   0  0  0  0  0  0  0  0  0  0  0  0
   11.6876    3.2698    0.0000 H   0  0  0  0  0  0  0  0  0  0  0  0
   10.8894    3.2822    0.0000 H   0  0  0  0  0  0  0  0  0  0  0  0
   12.9001    4.3332    0.0000 H   0  0  0  0  0  0  0  0  0  0  0  0
   12.5042    3.6414    0.0000 H   0  0  0  0  0  0  0  0  0  0  0  0
   16.4661    4.7353    0.0000 H   0  0  0  0  0  0  0  0  0  0  0  0
   15.3435    1.7556    0.0000 H   0  0  0  0  0  0  0  0  0  0  0  0
   16.1417    1.7494    0.0000 H   0  0  0  0  0  0  0  0  0  0  0  0
    9.7948    1.4961    0.0000 H   0  0  0  0  0  0  0  0  0  0  0  0
   14.1585    1.0909    0.0000 H   0  0  0  0  0  0  0  0  0  0  0  0
   15.0323    1.0178    0.0000 H   0  0  0  0  0  0  0  0  0  0  0  0
   15.1053    1.8916    0.0000 H   0  0  0  0  0  0  0  0  0  0  0  0
   16.8617    2.1614    0.0000 H   0  0  0  0  0  0  0  0  0  0  0  0
   17.2608    2.8527    0.0000 H   0  0  0  0  0  0  0  0  0  0  0  0
   12.8340    3.2387    0.0000 H   0  0  0  0  0  0  0  0  0  0  0  0
   12.2164    3.8611    0.0000 H   0  0  0  0  0  0  0  0  0  0  0  0
   11.5941    3.2435    0.0000 H   0  0  0  0  0  0  0  0  0  0  0  0
   10.1285    2.8545    0.0000 H   0  0  0  0  0  0  0  0  0  0  0  0
    9.7241    2.1663    0.0000 H   0  0  0  0  0  0  0  0  0  0  0  0
   13.9761    4.8748    0.0000 H   0  0  0  0  0  0  0  0  0  0  0  0
   14.6141    1.6055    0.0000 H   0  0  0  0  0  0  0  0  0  0  0  0
   15.4102    1.2380    0.0000 H   0  0  0  0  0  0  0  0  0  0  0  0
   15.7777    2.0341    0.0000 H   0  0  0  0  0  0  0  0  0  0  0  0
   15.4843    5.9587    0.0000 H   0  0  0  0  0  0  0  0  0  0  0  0
   15.1012    5.2583    0.0000 H   0  0  0  0  0  0  0  0  0  0  0  0
   17.7994    3.7419    0.0000 H   0  0  0  0  0  0  0  0  0  0  0  0
   18.1985    4.4332    0.0000 H   0  0  0  0  0  0  0  0  0  0  0  0
   12.2575   -0.6108    0.0000 H   0  0  0  0  0  0  0  0  0  0  0  0
   12.2514    0.1862    0.0000 H   0  0  0  0  0  0  0  0  0  0  0  0
   10.2403    0.0822    0.0000 H   0  0  0  0  0  0  0  0  0  0  0  0
   10.4737   -0.7630    0.0000 H   0  0  0  0  0  0  0  0  0  0  0  0
   11.3189   -0.5295    0.0000 H   0  0  0  0  0  0  0  0  0  0  0  0
   18.1951    5.3060    0.0000 H   0  0  0  0  0  0  0  0  0  0  0  0
   17.7907    5.9942    0.0000 H   0  0  0  0  0  0  0  0  0  0  0  0
   17.6663    6.5133    0.0000 H   0  0  0  0  0  0  0  0  0  0  0  0
   17.4263    7.3566    0.0000 H   0  0  0  0  0  0  0  0  0  0  0  0
   16.5830    7.1166    0.0000 H   0  0  0  0  0  0  0  0  0  0  0  0
   16.6568    7.1178    0.0000 H   0  0  0  0  0  0  0  0  0  0  0  0
   15.8065    7.3316    0.0000 H   0  0  0  0  0  0  0  0  0  0  0  0
   15.5926    6.4813    0.0000 H   0  0  0  0  0  0  0  0  0  0  0  0
    8.5991    0.5650    0.0000 H   0  0  0  0  0  0  0  0  0  0  0  0
   11.6004   -1.6204    0.0000 H   0  0  0  0  0  0  0  0  0  0  0  0
   18.9188    3.5021    0.0000 H   0  0  0  0  0  0  0  0  0  0  0  0
    7.1962    0.3750    0.0000 H   0  0  0  0  0  0  0  0  0  0  0  0
    6.3301    1.4950    0.0000 H   0  0  0  0  0  0  0  0  0  0  0  0
    8.1316    3.1600    0.0000 H   0  0  0  0  0  0  0  0  0  0  0  0
    7.3346    3.1600    0.0000 H   0  0  0  0  0  0  0  0  0  0  0  0
    6.8671    2.8050    0.0000 H   0  0  0  0  0  0  0  0  0  0  0  0
    7.4040   -1.1250    0.0000 H   0  0  0  0  0  0  0  0  0  0  0  0
    5.4641    0.9950    0.0000 H   0  0  0  0  0  0  0  0  0  0  0  0
    6.0010    3.3050    0.0000 H   0  0  0  0  0  0  0  0  0  0  0  0
    6.8671   -2.4350    0.0000 H   0  0  0  0  0  0  0  0  0  0  0  0
    5.4641   -2.6250    0.0000 H   0  0  0  0  0  0  0  0  0  0  0  0
    5.1350   -0.1950    0.0000 H   0  0  0  0  0  0  0  0  0  0  0  0
    4.5981   -1.5050    0.0000 H   0  0  0  0  0  0  0  0  0  0  0  0
    8.2700   -2.0050    0.0000 H   0  0  0  0  0  0  0  0  0  0  0  0
    4.5790    0.2220    0.0000 H   0  0  0  0  0  0  0  0  0  0  0  0
    3.7320   -0.0050    0.0000 H   0  0  0  0  0  0  0  0  0  0  0  0
    3.9590   -0.8519    0.0000 H   0  0  0  0  0  0  0  0  0  0  0  0
    3.7320   -2.0050    0.0000 H   0  0  0  0  0  0  0  0  0  0  0  0
    5.1350   -3.1950    0.0000 H   0  0  0  0  0  0  0  0  0  0  0  0
    5.1350   -5.4350    0.0000 H   0  0  0  0  0  0  0  0  0  0  0  0
    3.7320   -5.6250    0.0000 H   0  0  0  0  0  0  0  0  0  0  0  0
    3.1909   -3.2324    0.0000 H   0  0  0  0  0  0  0  0  0  0  0  0
    2.7924   -3.9226    0.0000 H   0  0  0  0  0  0  0  0  0  0  0  0
    2.8660   -4.5050    0.0000 H   0  0  0  0  0  0  0  0  0  0  0  0
    3.7320   -6.6250    0.0000 H   0  0  0  0  0  0  0  0  0  0  0  0
    2.0000   -5.0050    0.0000 H   0  0  0  0  0  0  0  0  0  0  0  0
    6.5571   -7.3519    0.0000 H   0  0  0  0  0  0  0  0  0  0  0  0
    7.4040   -7.1250    0.0000 H   0  0  0  0  0  0  0  0  0  0  0  0
    7.1771   -6.2780    0.0000 H   0  0  0  0  0  0  0  0  0  0  0  0
 32  1  1  1  0  0  0
 48  1  1  1  0  0  0
  2 42  1  0  0  0  0
  2112  1  0  0  0  0
  3 45  1  0  0  0  0
  3113  1  0  0  0  0
  4 45  2  0  0  0  0
  5 48  1  0  0  0  0
  5 51  1  0  0  0  0
 49  6  1  6  0  0  0
 53  6  1  1  0  0  0
 50  7  1  1  0  0  0
  7120  1  0  0  0  0
 52  8  1  1  0  0  0
  8121  1  0  0  0  0
  9 53  1  0  0  0  0
  9 56  1  0  0  0  0
 54 10  1  6  0  0  0
 10126  1  0  0  0  0
 55 11  1  6  0  0  0
 59 11  1  1  0  0  0
 57 12  1  1  0  0  0
 12130  1  0  0  0  0
 13 59  1  0  0  0  0
 13 62  1  0  0  0  0
 60 14  1  6  0  0  0
 14 64  1  0  0  0  0
 61 15  1  1  0  0  0
 15137  1  0  0  0  0
 63 16  1  1  0  0  0
 16138  1  0  0  0  0
 17 64  2  0  0  0  0
 18 19  1  0  0  0  0
 18 21  1  0  0  0  0
 18 23  1  0  0  0  0
 18 33  1  1  0  0  0
 19 20  1  0  0  0  0
 19 28  1  0  0  0  0
 19 66  1  6  0  0  0
 20 22  1  0  0  0  0
 20 27  1  0  0  0  0
 20 35  1  1  0  0  0
 21 26  1  0  0  0  0
 21 30  1  0  0  0  0
 21 38  1  6  0  0  0
 22 24  1  0  0  0  0
 22 25  1  0  0  0  0
 22 67  1  6  0  0  0
 23 25  1  0  0  0  0
 23 68  1  0  0  0  0
 23 69  1  0  0  0  0
 24 32  1  0  0  0  0
 24 42  1  0  0  0  0
 24 43  1  1  0  0  0
 25 70  1  0  0  0  0
 25 71  1  0  0  0  0
 26 29  1  0  0  0  0
 26 37  2  0  0  0  0
 27 36  1  0  0  0  0
 27 72  1  0  0  0  0
 27 73  1  0  0  0  0
 28 37  1  0  0  0  0
 28 74  1  0  0  0  0
 28 75  1  0  0  0  0
 29 31  1  0  0  0  0
 29 39  1  0  0  0  0
 29 76  1  1  0  0  0
 30 34  1  0  0  0  0
 30 77  1  0  0  0  0
 30 78  1  0  0  0  0
 31 34  1  0  0  0  0
 31 40  1  0  0  0  0
 31 45  1  1  0  0  0
 32 36  1  0  0  0  0
 32 79  1  0  0  0  0
 33 80  1  0  0  0  0
 33 81  1  0  0  0  0
 33 82  1  0  0  0  0
 34 83  1  0  0  0  0
 34 84  1  0  0  0  0
 35 85  1  0  0  0  0
 35 86  1  0  0  0  0
 35 87  1  0  0  0  0
 36 88  1  0  0  0  0
 36 89  1  0  0  0  0
 37 90  1  0  0  0  0
 38 91  1  0  0  0  0
 38 92  1  0  0  0  0
 38 93  1  0  0  0  0
 39 41  1  0  0  0  0
 39 94  1  0  0  0  0
 39 95  1  0  0  0  0
 40 44  1  0  0  0  0
 40 96  1  0  0  0  0
 40 97  1  0  0  0  0
 41 44  1  0  0  0  0
 41 46  1  0  0  0  0
 41 47  1  0  0  0  0
 42 98  1  0  0  0  0
 42 99  1  0  0  0  0
 43100  1  0  0  0  0
 43101  1  0  0  0  0
 43102  1  0  0  0  0
 44103  1  0  0  0  0
 44104  1  0  0  0  0
 46105  1  0  0  0  0
 46106  1  0  0  0  0
 46107  1  0  0  0  0
 47108  1  0  0  0  0
 47109  1  0  0  0  0
 47110  1  0  0  0  0
 48 49  1  0  0  0  0
 48111  1  0  0  0  0
 49 50  1  0  0  0  0
 49114  1  0  0  0  0
 50 52  1  0  0  0  0
 50115  1  0  0  0  0
 51 52  1  0  0  0  0
 51116  1  0  0  0  0
 51117  1  0  0  0  0
 52118  1  0  0  0  0
 53 54  1  0  0  0  0
 53119  1  0  0  0  0
 54 55  1  0  0  0  0
 54122  1  0  0  0  0
 55 57  1  0  0  0  0
 55123  1  0  0  0  0
 56 57  1  0  0  0  0
 56 58  1  6  0  0  0
 56124  1  0  0  0  0
 57125  1  0  0  0  0
 58127  1  0  0  0  0
 58128  1  0  0  0  0
 58129  1  0  0  0  0
 59 60  1  0  0  0  0
 59131  1  0  0  0  0
 60 61  1  0  0  0  0
 60132  1  0  0  0  0
 61 63  1  0  0  0  0
 61133  1  0  0  0  0
 62 63  1  0  0  0  0
 62134  1  0  0  0  0
 62135  1  0  0  0  0
 63136  1  0  0  0  0
 64 65  1  0  0  0  0
 65139  1  0  0  0  0
 65140  1  0  0  0  0
 65141  1  0  0  0  0
M  END
> <PUBCHEM_COMPOUND_CID>
44250225

> <PUBCHEM_COMPOUND_CANONICALIZED>
1

> <PUBCHEM_CACTVS_COMPLEXITY>
1810

> <PUBCHEM_CACTVS_HBOND_ACCEPTOR>
17

> <PUBCHEM_CACTVS_HBOND_DONOR>
8

> <PUBCHEM_CACTVS_ROTATABLE_BOND>
10

> <PUBCHEM_CACTVS_SUBSKEYS>
AAADcfB8PgAAAAAAAAAAAAAAAAAAAAAAAAA0aNGCAAAAAADAAAAAGgAACAAADxSwgAMCCAAABgCIAiDSCAAAAAAgAAAACAEAAAgREBIAAQAiQAAFgAAPAAPI6PyPgAAAAAAAAADAAAYAADAAAAAAAAAAAA==

> <PUBCHEM_IUPAC_OPENEYE_NAME>
(4aS,6aR,6aS,6bR,8aR,9R,10S,12aR,14bS)-10-[(2S,3R,4S,5S)-3-[(2S,3R,4R,5S,6S)-4-[(2S,3R,4S,5S)-3-acetoxy-4,5-dihydroxy-tetrahydropyran-2-yl]oxy-3,5-dihydroxy-6-methyl-tetrahydropyran-2-yl]oxy-4,5-dihydroxy-tetrahydropyran-2-yl]oxy-9-(hydroxymethyl)-2,2,6a,6b,9,12a-hexamethyl-1,3,4,5,6,6a,7,8,8a,10,11,12,13,14b-tetradecahydropicene-4a-carboxylic acid

> <PUBCHEM_IUPAC_CAS_NAME>
(4aS,6aR,6aS,6bR,8aR,9R,10S,12aR,14bS)-10-[[(2S,3R,4S,5S)-3-[[(2S,3R,4R,5S,6S)-4-[[(2S,3R,4S,5S)-3-acetyloxy-4,5-dihydroxy-2-oxanyl]oxy]-3,5-dihydroxy-6-methyl-2-oxanyl]oxy]-4,5-dihydroxy-2-oxanyl]oxy]-9-(hydroxymethyl)-2,2,6a,6b,9,12a-hexamethyl-1,3,4,5,6,6a,7,8,8a,10,11,12,13,14b-tetradecahydropicene-4a-carboxylic acid

> <PUBCHEM_IUPAC_NAME_MARKUP>
(4<I>a</I><I>S</I>,6<I>a</I><I>R</I>,6<I>a</I><I>S</I>,6<I>b</I><I>R</I>,8<I>a</I><I>R</I>,9<I>R</I>,10<I>S</I>,12<I>a</I><I>R</I>,14<I>b</I><I>S</I>)-10-[(2<I>S</I>,3<I>R</I>,4<I>S</I>,5<I>S</I>)-3-[(2<I>S</I>,3<I>R</I>,4<I>R</I>,5<I>S</I>,6<I>S</I>)-4-[(2<I>S</I>,3<I>R</I>,4<I>S</I>,5<I>S</I>)-3-acetyloxy-4,5-dihydroxyoxan-2-yl]oxy-3,5-dihydroxy-6-methyloxan-2-yl]oxy-4,5-dihydroxyoxan-2-yl]oxy-9-(hydroxymethyl)-2,2,6<I>a</I>,6<I>b</I>,9,12<I>a</I>-hexamethyl-1,3,4,5,6,6<I>a</I>,7,8,8<I>a</I>,10,11,12,13,14<I>b</I>-tetradecahydropicene-4<I>a</I>-carboxylic acid

> <PUBCHEM_IUPAC_NAME>
(4aS,6aR,6aS,6bR,8aR,9R,10S,12aR,14bS)-10-[(2S,3R,4S,5S)-3-[(2S,3R,4R,5S,6S)-4-[(2S,3R,4S,5S)-3-acetyloxy-4,5-dihydroxyoxan-2-yl]oxy-3,5-dihydroxy-6-methyloxan-2-yl]oxy-4,5-dihydroxyoxan-2-yl]oxy-9-(hydroxymethyl)-2,2,6a,6b,9,12a-hexamethyl-1,3,4,5,6,6a,7,8,8a,10,11,12,13,14b-tetradecahydropicene-4a-carboxylic acid

> <PUBCHEM_IUPAC_SYSTEMATIC_NAME>
(4aS,6aR,6aS,6bR,8aR,9R,10S,12aR,14bS)-10-[(2S,3R,4S,5S)-3-[(2S,3R,4R,5S,6S)-4-[(2S,3R,4S,5S)-3-acetyloxy-4,5-bis(oxidanyl)oxan-2-yl]oxy-6-methyl-3,5-bis(oxidanyl)oxan-2-yl]oxy-4,5-bis(oxidanyl)oxan-2-yl]oxy-9-(hydroxymethyl)-2,2,6a,6b,9,12a-hexamethyl-1,3,4,5,6,6a,7,8,8a,10,11,12,13,14b-tetradecahydropicene-4a-carboxylic acid

> <PUBCHEM_IUPAC_TRADITIONAL_NAME>
(4aS,6aR,6aS,6bR,8aR,9R,10S,12aR,14bS)-10-[(2S,3R,4S,5S)-3-[(2S,3R,4R,5S,6S)-4-[(2S,3R,4S,5S)-3-acetoxy-4,5-dihydroxy-tetrahydropyran-2-yl]oxy-3,5-dihydroxy-6-methyl-tetrahydropyran-2-yl]oxy-4,5-dihydroxy-tetrahydropyran-2-yl]oxy-2,2,6a,6b,9,12a-hexamethyl-9-methylol-1,3,4,5,6,6a,7,8,8a,10,11,12,13,14b-tetradecahydropicene-4a-carboxylic acid

> <PUBCHEM_IUPAC_INCHI>
InChI=1S/C48H76O17/c1-23-32(53)36(64-41-37(62-24(2)50)33(54)27(51)21-60-41)35(56)39(61-23)65-38-34(55)28(52)20-59-40(38)63-31-12-13-44(5)29(45(31,6)22-49)11-14-47(8)30(44)10-9-25-26-19-43(3,4)15-17-48(26,42(57)58)18-16-46(25,47)7/h9,23,26-41,49,51-56H,10-22H2,1-8H3,(H,57,58)/t23-,26-,27-,28-,29+,30+,31-,32-,33-,34-,35+,36+,37+,38+,39-,40-,41-,44-,45-,46+,47+,48-/m0/s1

> <PUBCHEM_IUPAC_INCHIKEY>
CPDBVIKRVHDUKD-MJWHIBESSA-N

> <PUBCHEM_XLOGP3_AA>
2.7

> <PUBCHEM_EXACT_MASS>
924.50825095

> <PUBCHEM_MOLECULAR_FORMULA>
C48H76O17

> <PUBCHEM_MOLECULAR_WEIGHT>
925.1

> <PUBCHEM_OPENEYE_CAN_SMILES>
CC1C(C(C(C(O1)OC2C(C(COC2OC3CCC4(C(C3(C)CO)CCC5(C4CC=C6C5(CCC7(C6CC(CC7)(C)C)C(=O)O)C)C)C)O)O)O)OC8C(C(C(CO8)O)O)OC(=O)C)O

> <PUBCHEM_OPENEYE_ISO_SMILES>
C[C@H]1[C@@H]([C@H]([C@H]([C@@H](O1)O[C@@H]2[C@H]([C@H](CO[C@H]2O[C@H]3CC[C@]4([C@H]([C@]3(C)CO)CC[C@@]5([C@@H]4CC=C6[C@]5(CC[C@@]7([C@H]6CC(CC7)(C)C)C(=O)O)C)C)C)O)O)O)O[C@H]8[C@@H]([C@H]([C@H](CO8)O)O)OC(=O)C)O

> <PUBCHEM_CACTVS_TPSA>
261

> <PUBCHEM_MONOISOTOPIC_WEIGHT>
924.50825095

> <PUBCHEM_TOTAL_CHARGE>
0

> <PUBCHEM_HEAVY_ATOM_COUNT>
65

> <PUBCHEM_ATOM_DEF_STEREO_COUNT>
22

> <PUBCHEM_ATOM_UDEF_STEREO_COUNT>
0

> <PUBCHEM_BOND_DEF_STEREO_COUNT>
0

> <PUBCHEM_BOND_UDEF_STEREO_COUNT>
0

> <PUBCHEM_ISOTOPIC_ATOM_COUNT>
0

> <PUBCHEM_COMPONENT_COUNT>
1

> <PUBCHEM_CACTVS_TAUTO_COUNT>
-1

> <PUBCHEM_COORDINATE_TYPE>
1
5
255

> <PUBCHEM_BONDANNOTATIONS>
32  1  5
48  1  5
54  10  6
55  11  6
59  11  5
57  12  5
60  14  6
61  15  5
63  16  5
18  33  5
19  66  6
20  35  5
21  38  6
22  67  6
24  43  5
29  76  5
31  45  5
56  58  6
49  6  6
53  6  5
50  7  5
52  8  5

$$$$
