60150482
  -OEChem-02142200512D

 88 90  0     1  0  0  0  0  0999 V2000
    5.4641   -3.5000    0.0000 O   0  0  0  0  0  0  0  0  0  0  0  0
    8.9282    6.5000    0.0000 O   0  0  0  0  0  0  0  0  0  0  0  0
    6.3301    4.0000    0.0000 O   0  0  0  0  0  0  0  0  0  0  0  0
   12.3923    5.5000    0.0000 O   0  0  0  0  0  0  0  0  0  0  0  0
    7.1962    0.5000    0.0000 O   0  0  0  0  0  0  0  0  0  0  0  0
    9.7942    5.0000    0.0000 N   0  0  0  0  0  0  0  0  0  0  0  0
    8.0622    4.0000    0.0000 N   0  0  0  0  0  0  0  0  0  0  0  0
   11.5263    4.0000    0.0000 N   0  0  0  0  0  0  0  0  0  0  0  0
    5.4641    0.5000    0.0000 N   0  0  0  0  0  0  0  0  0  0  0  0
    8.0622    5.0000    0.0000 C   0  0  1  0  0  0  0  0  0  0  0  0
    7.1962    5.5000    0.0000 C   0  0  0  0  0  0  0  0  0  0  0  0
    3.7320   -6.5000    0.0000 C   0  0  0  0  0  0  0  0  0  0  0  0
    3.7320   -5.5000    0.0000 C   0  0  0  0  0  0  0  0  0  0  0  0
   10.6603    5.5000    0.0000 C   0  0  1  0  0  0  0  0  0  0  0  0
    2.8660   -7.0000    0.0000 C   0  0  0  0  0  0  0  0  0  0  0  0
    8.9282    5.5000    0.0000 C   0  0  0  0  0  0  0  0  0  0  0  0
    4.5981   -5.0000    0.0000 C   0  0  0  0  0  0  0  0  0  0  0  0
   10.6603    6.5000    0.0000 C   0  0  0  0  0  0  0  0  0  0  0  0
    2.8660   -8.0000    0.0000 C   0  0  0  0  0  0  0  0  0  0  0  0
    7.1962    6.5000    0.0000 C   0  0  0  0  0  0  0  0  0  0  0  0
    4.5981   -4.0000    0.0000 C   0  0  0  0  0  0  0  0  0  0  0  0
   11.5263    7.0000    0.0000 C   0  0  0  0  0  0  0  0  0  0  0  0
    7.1962    3.5000    0.0000 C   0  0  0  0  0  0  0  0  0  0  0  0
   11.5263    5.0000    0.0000 C   0  0  0  0  0  0  0  0  0  0  0  0
    7.1962    2.5000    0.0000 C   0  0  0  0  0  0  0  0  0  0  0  0
    2.0000   -8.5000    0.0000 C   0  0  0  0  0  0  0  0  0  0  0  0
    6.3301    7.0000    0.0000 C   0  0  0  0  0  0  0  0  0  0  0  0
    8.0622    7.0000    0.0000 C   0  0  0  0  0  0  0  0  0  0  0  0
    6.3301    2.0000    0.0000 C   0  0  0  0  0  0  0  0  0  0  0  0
   11.5263    8.0000    0.0000 C   0  0  0  0  0  0  0  0  0  0  0  0
   12.3923    6.5000    0.0000 C   0  0  0  0  0  0  0  0  0  0  0  0
    6.3301    8.0000    0.0000 C   0  0  0  0  0  0  0  0  0  0  0  0
    8.0622    8.0000    0.0000 C   0  0  0  0  0  0  0  0  0  0  0  0
    5.4641   -2.5000    0.0000 C   0  0  0  0  0  0  0  0  0  0  0  0
    6.3301    1.0000    0.0000 C   0  0  0  0  0  0  0  0  0  0  0  0
    7.1962    8.5000    0.0000 C   0  0  0  0  0  0  0  0  0  0  0  0
   12.3923    8.5000    0.0000 C   0  0  0  0  0  0  0  0  0  0  0  0
   13.2583    7.0000    0.0000 C   0  0  0  0  0  0  0  0  0  0  0  0
    5.4641   -0.5000    0.0000 C   0  0  0  0  0  0  0  0  0  0  0  0
   13.2583    8.0000    0.0000 C   0  0  0  0  0  0  0  0  0  0  0  0
    4.5981   -2.0000    0.0000 C   0  0  0  0  0  0  0  0  0  0  0  0
    6.3301   -2.0000    0.0000 C   0  0  0  0  0  0  0  0  0  0  0  0
    4.5981   -1.0000    0.0000 C   0  0  0  0  0  0  0  0  0  0  0  0
    6.3301   -1.0000    0.0000 C   0  0  0  0  0  0  0  0  0  0  0  0
    7.5252    4.6900    0.0000 H   0  0  0  0  0  0  0  0  0  0  0  0
    6.5856    5.6077    0.0000 H   0  0  0  0  0  0  0  0  0  0  0  0
    6.9841    4.9174    0.0000 H   0  0  0  0  0  0  0  0  0  0  0  0
    3.9441   -7.0826    0.0000 H   0  0  0  0  0  0  0  0  0  0  0  0
    4.3426   -6.3923    0.0000 H   0  0  0  0  0  0  0  0  0  0  0  0
    3.5200   -4.9174    0.0000 H   0  0  0  0  0  0  0  0  0  0  0  0
    3.1215   -5.6077    0.0000 H   0  0  0  0  0  0  0  0  0  0  0  0
   10.6603    4.8800    0.0000 H   0  0  0  0  0  0  0  0  0  0  0  0
    2.6540   -6.4174    0.0000 H   0  0  0  0  0  0  0  0  0  0  0  0
    2.2554   -7.1077    0.0000 H   0  0  0  0  0  0  0  0  0  0  0  0
    4.8101   -5.5826    0.0000 H   0  0  0  0  0  0  0  0  0  0  0  0
    5.2087   -4.8923    0.0000 H   0  0  0  0  0  0  0  0  0  0  0  0
   10.4482    7.0826    0.0000 H   0  0  0  0  0  0  0  0  0  0  0  0
   10.0497    6.3923    0.0000 H   0  0  0  0  0  0  0  0  0  0  0  0
    9.7942    4.3800    0.0000 H   0  0  0  0  0  0  0  0  0  0  0  0
    8.5991    3.6900    0.0000 H   0  0  0  0  0  0  0  0  0  0  0  0
    3.0781   -8.5826    0.0000 H   0  0  0  0  0  0  0  0  0  0  0  0
    3.4766   -7.8923    0.0000 H   0  0  0  0  0  0  0  0  0  0  0  0
    4.3860   -3.4174    0.0000 H   0  0  0  0  0  0  0  0  0  0  0  0
    3.9875   -4.1077    0.0000 H   0  0  0  0  0  0  0  0  0  0  0  0
    7.4082    1.9174    0.0000 H   0  0  0  0  0  0  0  0  0  0  0  0
    7.8067    2.6077    0.0000 H   0  0  0  0  0  0  0  0  0  0  0  0
    1.6900   -7.9631    0.0000 H   0  0  0  0  0  0  0  0  0  0  0  0
    1.4631   -8.8100    0.0000 H   0  0  0  0  0  0  0  0  0  0  0  0
    2.3100   -9.0369    0.0000 H   0  0  0  0  0  0  0  0  0  0  0  0
    5.7932    6.6900    0.0000 H   0  0  0  0  0  0  0  0  0  0  0  0
    8.5991    6.6900    0.0000 H   0  0  0  0  0  0  0  0  0  0  0  0
    6.1181    2.5826    0.0000 H   0  0  0  0  0  0  0  0  0  0  0  0
    5.7196    1.8923    0.0000 H   0  0  0  0  0  0  0  0  0  0  0  0
   10.9893    8.3100    0.0000 H   0  0  0  0  0  0  0  0  0  0  0  0
   12.3923    5.8800    0.0000 H   0  0  0  0  0  0  0  0  0  0  0  0
    5.7932    8.3100    0.0000 H   0  0  0  0  0  0  0  0  0  0  0  0
    8.5991    8.3100    0.0000 H   0  0  0  0  0  0  0  0  0  0  0  0
    7.1962    9.1200    0.0000 H   0  0  0  0  0  0  0  0  0  0  0  0
   12.0632    3.6900    0.0000 H   0  0  0  0  0  0  0  0  0  0  0  0
   10.9893    3.6900    0.0000 H   0  0  0  0  0  0  0  0  0  0  0  0
   12.3923    9.1200    0.0000 H   0  0  0  0  0  0  0  0  0  0  0  0
   13.7953    6.6900    0.0000 H   0  0  0  0  0  0  0  0  0  0  0  0
    4.9272    0.8100    0.0000 H   0  0  0  0  0  0  0  0  0  0  0  0
   13.7953    8.3100    0.0000 H   0  0  0  0  0  0  0  0  0  0  0  0
    4.0611   -2.3100    0.0000 H   0  0  0  0  0  0  0  0  0  0  0  0
    6.8671   -2.3100    0.0000 H   0  0  0  0  0  0  0  0  0  0  0  0
    4.0611   -0.6900    0.0000 H   0  0  0  0  0  0  0  0  0  0  0  0
    6.8671   -0.6900    0.0000 H   0  0  0  0  0  0  0  0  0  0  0  0
  1 21  1  0  0  0  0
  1 34  1  0  0  0  0
  2 16  2  0  0  0  0
  3 23  2  0  0  0  0
  4 24  2  0  0  0  0
  5 35  2  0  0  0  0
 14  6  1  1  0  0  0
  6 16  1  0  0  0  0
  6 59  1  0  0  0  0
 10  7  1  1  0  0  0
  7 23  1  0  0  0  0
  7 60  1  0  0  0  0
  8 24  1  0  0  0  0
  8 79  1  0  0  0  0
  8 80  1  0  0  0  0
  9 35  1  0  0  0  0
  9 39  1  0  0  0  0
  9 83  1  0  0  0  0
 10 11  1  0  0  0  0
 10 16  1  0  0  0  0
 10 45  1  0  0  0  0
 11 20  1  0  0  0  0
 11 46  1  0  0  0  0
 11 47  1  0  0  0  0
 12 13  1  0  0  0  0
 12 15  1  0  0  0  0
 12 48  1  0  0  0  0
 12 49  1  0  0  0  0
 13 17  1  0  0  0  0
 13 50  1  0  0  0  0
 13 51  1  0  0  0  0
 14 18  1  0  0  0  0
 14 24  1  0  0  0  0
 14 52  1  0  0  0  0
 15 19  1  0  0  0  0
 15 53  1  0  0  0  0
 15 54  1  0  0  0  0
 17 21  1  0  0  0  0
 17 55  1  0  0  0  0
 17 56  1  0  0  0  0
 18 22  1  0  0  0  0
 18 57  1  0  0  0  0
 18 58  1  0  0  0  0
 19 26  1  0  0  0  0
 19 61  1  0  0  0  0
 19 62  1  0  0  0  0
 20 27  2  0  0  0  0
 20 28  1  0  0  0  0
 21 63  1  0  0  0  0
 21 64  1  0  0  0  0
 22 30  2  0  0  0  0
 22 31  1  0  0  0  0
 23 25  1  0  0  0  0
 25 29  1  0  0  0  0
 25 65  1  0  0  0  0
 25 66  1  0  0  0  0
 26 67  1  0  0  0  0
 26 68  1  0  0  0  0
 26 69  1  0  0  0  0
 27 32  1  0  0  0  0
 27 70  1  0  0  0  0
 28 33  2  0  0  0  0
 28 71  1  0  0  0  0
 29 35  1  0  0  0  0
 29 72  1  0  0  0  0
 29 73  1  0  0  0  0
 30 37  1  0  0  0  0
 30 74  1  0  0  0  0
 31 38  2  0  0  0  0
 31 75  1  0  0  0  0
 32 36  2  0  0  0  0
 32 76  1  0  0  0  0
 33 36  1  0  0  0  0
 33 77  1  0  0  0  0
 34 41  2  0  0  0  0
 34 42  1  0  0  0  0
 36 78  1  0  0  0  0
 37 40  2  0  0  0  0
 37 81  1  0  0  0  0
 38 40  1  0  0  0  0
 38 82  1  0  0  0  0
 39 43  2  0  0  0  0
 39 44  1  0  0  0  0
 40 84  1  0  0  0  0
 41 43  1  0  0  0  0
 41 85  1  0  0  0  0
 42 44  2  0  0  0  0
 42 86  1  0  0  0  0
 43 87  1  0  0  0  0
 44 88  1  0  0  0  0
M  END
> <PUBCHEM_COMPOUND_CID>
60150482

> <PUBCHEM_COMPOUND_CANONICALIZED>
1

> <PUBCHEM_CACTVS_COMPLEXITY>
863

> <PUBCHEM_CACTVS_HBOND_ACCEPTOR>
5

> <PUBCHEM_CACTVS_HBOND_DONOR>
4

> <PUBCHEM_CACTVS_ROTATABLE_BOND>
19

> <PUBCHEM_CACTVS_SUBSKEYS>
AAADcfB/uAAAAAAAAAAAAAAAAAAAAAAAAAAwYMAAAAAAAAABUAAAHgAQAAAADCzhmAYyxoLABACIAiVSUACCCAAhIgAIiIGObIgMZjLEsbuWOCjk1hHI6Ae9yKCOAEAAAAAAAAAAgAAAAAAAAAAAAAAAAA==

> <PUBCHEM_IUPAC_OPENEYE_NAME>
N'-[(1S)-2-[[(1S)-2-amino-1-benzyl-2-oxo-ethyl]amino]-1-benzyl-2-oxo-ethyl]-N-(4-heptoxyphenyl)butanediamide

> <PUBCHEM_IUPAC_CAS_NAME>
N'-[(2S)-1-[[(2S)-1-amino-1-oxo-3-phenylpropan-2-yl]amino]-1-oxo-3-phenylpropan-2-yl]-N-(4-heptoxyphenyl)butanediamide

> <PUBCHEM_IUPAC_NAME_MARKUP>
<I>N</I>&apos;-[(2<I>S</I>)-1-[[(2<I>S</I>)-1-amino-1-oxo-3-phenylpropan-2-yl]amino]-1-oxo-3-phenylpropan-2-yl]-<I>N</I>-(4-heptoxyphenyl)butanediamide

> <PUBCHEM_IUPAC_NAME>
N'-[(2S)-1-[[(2S)-1-amino-1-oxo-3-phenylpropan-2-yl]amino]-1-oxo-3-phenylpropan-2-yl]-N-(4-heptoxyphenyl)butanediamide

> <PUBCHEM_IUPAC_SYSTEMATIC_NAME>
N'-[(2S)-1-[[(2S)-1-azanyl-1-oxidanylidene-3-phenyl-propan-2-yl]amino]-1-oxidanylidene-3-phenyl-propan-2-yl]-N-(4-heptoxyphenyl)butanediamide

> <PUBCHEM_IUPAC_TRADITIONAL_NAME>
N'-[(1S)-2-[[(1S)-2-amino-1-benzyl-2-keto-ethyl]amino]-1-benzyl-2-keto-ethyl]-N-(4-heptoxyphenyl)succinamide

> <PUBCHEM_IUPAC_INCHI>
InChI=1S/C35H44N4O5/c1-2-3-4-5-12-23-44-29-19-17-28(18-20-29)37-32(40)21-22-33(41)38-31(25-27-15-10-7-11-16-27)35(43)39-30(34(36)42)24-26-13-8-6-9-14-26/h6-11,13-20,30-31H,2-5,12,21-25H2,1H3,(H2,36,42)(H,37,40)(H,38,41)(H,39,43)/t30-,31-/m0/s1

> <PUBCHEM_IUPAC_INCHIKEY>
DQBLUSOCXDUMFU-CONSDPRKSA-N

> <PUBCHEM_XLOGP3_AA>
5.4

> <PUBCHEM_EXACT_MASS>
600.33117052

> <PUBCHEM_MOLECULAR_FORMULA>
C35H44N4O5

> <PUBCHEM_MOLECULAR_WEIGHT>
600.7

> <PUBCHEM_OPENEYE_CAN_SMILES>
CCCCCCCOC1=CC=C(C=C1)NC(=O)CCC(=O)NC(CC2=CC=CC=C2)C(=O)NC(CC3=CC=CC=C3)C(=O)N

> <PUBCHEM_OPENEYE_ISO_SMILES>
CCCCCCCOC1=CC=C(C=C1)NC(=O)CCC(=O)N[C@@H](CC2=CC=CC=C2)C(=O)N[C@@H](CC3=CC=CC=C3)C(=O)N

> <PUBCHEM_CACTVS_TPSA>
140

> <PUBCHEM_MONOISOTOPIC_WEIGHT>
600.33117052

> <PUBCHEM_TOTAL_CHARGE>
0

> <PUBCHEM_HEAVY_ATOM_COUNT>
44

> <PUBCHEM_ATOM_DEF_STEREO_COUNT>
2

> <PUBCHEM_ATOM_UDEF_STEREO_COUNT>
0

> <PUBCHEM_BOND_DEF_STEREO_COUNT>
0

> <PUBCHEM_BOND_UDEF_STEREO_COUNT>
0

> <PUBCHEM_ISOTOPIC_ATOM_COUNT>
0

> <PUBCHEM_COMPONENT_COUNT>
1

> <PUBCHEM_CACTVS_TAUTO_COUNT>
-1

> <PUBCHEM_COORDINATE_TYPE>
1
5
255

> <PUBCHEM_BONDANNOTATIONS>
20  27  8
20  28  8
22  30  8
22  31  8
27  32  8
28  33  8
30  37  8
31  38  8
32  36  8
33  36  8
34  41  8
34  42  8
37  40  8
38  40  8
39  43  8
39  44  8
41  43  8
42  44  8
14  6  5
10  7  5

$$$$
