145949928
  -OEChem-02142203542D

 75 78  0     1  0  0  0  0  0999 V2000
   10.9294   -6.1872    0.0000 F   0  0  0  0  0  0  0  0  0  0  0  0
    2.5369   -0.7192    0.0000 O   0  0  0  0  0  0  0  0  0  0  0  0
    5.1350   -1.2192    0.0000 O   0  0  0  0  0  0  0  0  0  0  0  0
    3.4030   -1.2192    0.0000 O   0  0  0  0  0  0  0  0  0  0  0  0
    6.1056   -3.7138    0.0000 N   0  0  0  0  0  0  0  0  0  0  0  0
    7.5837   -3.0556    0.0000 N   0  0  0  0  0  0  0  0  0  0  0  0
    7.0837   -3.9217    0.0000 N   0  0  0  0  0  0  0  0  0  0  0  0
    5.1350    3.7808    0.0000 C   0  0  1  0  0  0  0  0  0  0  0  0
    5.1350    4.7808    0.0000 C   0  0  2  0  0  0  0  0  0  0  0  0
    6.0290    5.3154    0.0000 C   0  0  0  0  0  0  0  0  0  0  0  0
    4.2690    3.2808    0.0000 C   0  0  3  0  0  0  0  0  0  0  0  0
    6.0290    3.2461    0.0000 C   0  0  0  0  0  0  0  0  0  0  0  0
    4.2690    5.2808    0.0000 C   0  0  0  0  0  0  0  0  0  0  0  0
    6.9350    4.8016    0.0000 C   0  0  0  0  0  0  0  0  0  0  0  0
    6.9350    3.7600    0.0000 C   0  0  0  0  0  0  0  0  0  0  0  0
    5.1350    2.7808    0.0000 C   0  0  0  0  0  0  0  0  0  0  0  0
    3.4030    4.7808    0.0000 C   0  0  0  0  0  0  0  0  0  0  0  0
    3.4030    3.7808    0.0000 C   0  0  0  0  0  0  0  0  0  0  0  0
    6.5189    6.1872    0.0000 C   0  0  0  0  0  0  0  0  0  0  0  0
    5.5190    6.1756    0.0000 C   0  0  0  0  0  0  0  0  0  0  0  0
    4.2690    2.2808    0.0000 C   0  0  0  0  0  0  0  0  0  0  0  0
    2.5369    3.2808    0.0000 C   0  0  0  0  0  0  0  0  0  0  0  0
    3.4030    1.7808    0.0000 C   0  0  0  0  0  0  0  0  0  0  0  0
    3.4030    0.7808    0.0000 C   0  0  0  0  0  0  0  0  0  0  0  0
    4.2690    0.2808    0.0000 C   0  0  0  0  0  0  0  0  0  0  0  0
    2.5369    0.2808    0.0000 C   0  0  0  0  0  0  0  0  0  0  0  0
    4.2690   -0.7192    0.0000 C   0  0  0  0  0  0  0  0  0  0  0  0
    5.1350   -2.2192    0.0000 C   0  0  0  0  0  0  0  0  0  0  0  0
    6.0010   -2.7192    0.0000 C   0  0  0  0  0  0  0  0  0  0  0  0
    6.9146   -2.3125    0.0000 C   0  0  0  0  0  0  0  0  0  0  0  0
    8.5782   -2.9511    0.0000 C   0  0  0  0  0  0  0  0  0  0  0  0
    9.1660   -3.7601    0.0000 C   0  0  0  0  0  0  0  0  0  0  0  0
   10.1605   -3.6556    0.0000 C   0  0  0  0  0  0  0  0  0  0  0  0
    8.7593   -4.6737    0.0000 C   0  0  0  0  0  0  0  0  0  0  0  0
   10.7483   -4.4646    0.0000 C   0  0  0  0  0  0  0  0  0  0  0  0
    9.3471   -5.4827    0.0000 C   0  0  0  0  0  0  0  0  0  0  0  0
   10.3416   -5.3782    0.0000 C   0  0  0  0  0  0  0  0  0  0  0  0
    5.1285    5.6307    0.0000 H   0  0  0  0  0  0  0  0  0  0  0  0
    3.7320    2.9708    0.0000 H   0  0  0  0  0  0  0  0  0  0  0  0
    5.6244    2.7763    0.0000 H   0  0  0  0  0  0  0  0  0  0  0  0
    6.4226    2.7671    0.0000 H   0  0  0  0  0  0  0  0  0  0  0  0
    4.6675    5.7557    0.0000 H   0  0  0  0  0  0  0  0  0  0  0  0
    3.8705    5.7557    0.0000 H   0  0  0  0  0  0  0  0  0  0  0  0
    7.5459    4.6955    0.0000 H   0  0  0  0  0  0  0  0  0  0  0  0
    7.1441    5.3853    0.0000 H   0  0  0  0  0  0  0  0  0  0  0  0
    7.1441    3.1763    0.0000 H   0  0  0  0  0  0  0  0  0  0  0  0
    7.5459    3.8660    0.0000 H   0  0  0  0  0  0  0  0  0  0  0  0
    4.5150    2.7808    0.0000 H   0  0  0  0  0  0  0  0  0  0  0  0
    5.1350    2.1608    0.0000 H   0  0  0  0  0  0  0  0  0  0  0  0
    5.7550    2.7808    0.0000 H   0  0  0  0  0  0  0  0  0  0  0  0
    3.1909    5.3634    0.0000 H   0  0  0  0  0  0  0  0  0  0  0  0
    2.7924    4.6731    0.0000 H   0  0  0  0  0  0  0  0  0  0  0  0
    7.0594    5.8834    0.0000 H   0  0  0  0  0  0  0  0  0  0  0  0
    6.8227    6.7277    0.0000 H   0  0  0  0  0  0  0  0  0  0  0  0
    5.9784    6.4910    0.0000 H   0  0  0  0  0  0  0  0  0  0  0  0
    6.0523    6.4918    0.0000 H   0  0  0  0  0  0  0  0  0  0  0  0
    5.2028    6.7089    0.0000 H   0  0  0  0  0  0  0  0  0  0  0  0
    4.9857    5.8594    0.0000 H   0  0  0  0  0  0  0  0  0  0  0  0
    4.4810    1.6982    0.0000 H   0  0  0  0  0  0  0  0  0  0  0  0
    4.8796    2.3884    0.0000 H   0  0  0  0  0  0  0  0  0  0  0  0
    2.0000    3.5908    0.0000 H   0  0  0  0  0  0  0  0  0  0  0  0
    2.5369    2.6608    0.0000 H   0  0  0  0  0  0  0  0  0  0  0  0
    2.8660    2.0908    0.0000 H   0  0  0  0  0  0  0  0  0  0  0  0
    4.8796    0.1731    0.0000 H   0  0  0  0  0  0  0  0  0  0  0  0
    4.4810    0.8634    0.0000 H   0  0  0  0  0  0  0  0  0  0  0  0
    2.0000    0.5908    0.0000 H   0  0  0  0  0  0  0  0  0  0  0  0
    4.5244   -2.1116    0.0000 H   0  0  0  0  0  0  0  0  0  0  0  0
    4.9230   -2.8018    0.0000 H   0  0  0  0  0  0  0  0  0  0  0  0
    7.0435   -1.7060    0.0000 H   0  0  0  0  0  0  0  0  0  0  0  0
    9.1355   -2.6793    0.0000 H   0  0  0  0  0  0  0  0  0  0  0  0
    8.4073   -2.3551    0.0000 H   0  0  0  0  0  0  0  0  0  0  0  0
   10.4127   -3.0892    0.0000 H   0  0  0  0  0  0  0  0  0  0  0  0
    8.1427   -4.7385    0.0000 H   0  0  0  0  0  0  0  0  0  0  0  0
   11.3649   -4.3998    0.0000 H   0  0  0  0  0  0  0  0  0  0  0  0
    9.0949   -6.0491    0.0000 H   0  0  0  0  0  0  0  0  0  0  0  0
  1 37  1  0  0  0  0
  2 26  2  0  0  0  0
  3 27  1  0  0  0  0
  3 28  1  0  0  0  0
  4 27  2  0  0  0  0
  5  7  2  0  0  0  0
  5 29  1  0  0  0  0
  6  7  1  0  0  0  0
  6 30  1  0  0  0  0
  6 31  1  0  0  0  0
  8  9  1  0  0  0  0
  8 11  1  0  0  0  0
  8 12  1  0  0  0  0
  8 16  1  1  0  0  0
  9 10  1  0  0  0  0
  9 13  1  0  0  0  0
  9 38  1  6  0  0  0
 10 14  1  0  0  0  0
 10 19  1  0  0  0  0
 10 20  1  0  0  0  0
 11 18  1  0  0  0  0
 11 21  1  0  0  0  0
 11 39  1  0  0  0  0
 12 15  1  0  0  0  0
 12 40  1  0  0  0  0
 12 41  1  0  0  0  0
 13 17  1  0  0  0  0
 13 42  1  0  0  0  0
 13 43  1  0  0  0  0
 14 15  1  0  0  0  0
 14 44  1  0  0  0  0
 14 45  1  0  0  0  0
 15 46  1  0  0  0  0
 15 47  1  0  0  0  0
 16 48  1  0  0  0  0
 16 49  1  0  0  0  0
 16 50  1  0  0  0  0
 17 18  1  0  0  0  0
 17 51  1  0  0  0  0
 17 52  1  0  0  0  0
 18 22  2  0  0  0  0
 19 53  1  0  0  0  0
 19 54  1  0  0  0  0
 19 55  1  0  0  0  0
 20 56  1  0  0  0  0
 20 57  1  0  0  0  0
 20 58  1  0  0  0  0
 21 23  1  0  0  0  0
 21 59  1  0  0  0  0
 21 60  1  0  0  0  0
 22 61  1  0  0  0  0
 22 62  1  0  0  0  0
 23 24  2  0  0  0  0
 23 63  1  0  0  0  0
 24 25  1  0  0  0  0
 24 26  1  0  0  0  0
 25 27  1  0  0  0  0
 25 64  1  0  0  0  0
 25 65  1  0  0  0  0
 26 66  1  0  0  0  0
 28 29  1  0  0  0  0
 28 67  1  0  0  0  0
 28 68  1  0  0  0  0
 29 30  2  0  0  0  0
 30 69  1  0  0  0  0
 31 32  1  0  0  0  0
 31 70  1  0  0  0  0
 31 71  1  0  0  0  0
 32 33  2  0  0  0  0
 32 34  1  0  0  0  0
 33 35  1  0  0  0  0
 33 72  1  0  0  0  0
 34 36  2  0  0  0  0
 34 73  1  0  0  0  0
 35 37  2  0  0  0  0
 35 74  1  0  0  0  0
 36 37  1  0  0  0  0
 36 75  1  0  0  0  0
M  END
> <PUBCHEM_COMPOUND_CID>
145949928

> <PUBCHEM_COMPOUND_CANONICALIZED>
1

> <PUBCHEM_CACTVS_COMPLEXITY>
866

> <PUBCHEM_CACTVS_HBOND_ACCEPTOR>
6

> <PUBCHEM_CACTVS_HBOND_DONOR>
0

> <PUBCHEM_CACTVS_ROTATABLE_BOND>
10

> <PUBCHEM_CACTVS_SUBSKEYS>
AAADcfB7MQAAAAAAAAAAAAAAAAAAAWAAAAAwYMAAAAAAAADBwAAAHwAIAAAADwjhng4+iJIIBACqAzz3zASCBAQxkgAY2AE4fMgKZDLAsRmXIAhmwADIqYcTgMAPgAAAAAAAAAAAAAQAACAAAAAAAAAAAA==

> <PUBCHEM_IUPAC_OPENEYE_NAME>
[1-[(4-fluorophenyl)methyl]triazol-4-yl]methyl (E)-5-[(4aS,8aS)-5,5,8a-trimethyl-2-methylene-decalin-1-yl]-3-formyl-pent-3-enoate

> <PUBCHEM_IUPAC_CAS_NAME>
(E)-5-[(4aS,8aS)-5,5,8a-trimethyl-2-methylene-3,4,4a,6,7,8-hexahydro-1H-naphthalen-1-yl]-3-formyl-3-pentenoic acid [1-[(4-fluorophenyl)methyl]-4-triazolyl]methyl ester

> <PUBCHEM_IUPAC_NAME_MARKUP>
[1-[(4-fluorophenyl)methyl]triazol-4-yl]methyl (<I>E</I>)-5-[(4<I>a</I><I>S</I>,8<I>a</I><I>S</I>)-5,5,8<I>a</I>-trimethyl-2-methylidene-3,4,4<I>a</I>,6,7,8-hexahydro-1<I>H</I>-naphthalen-1-yl]-3-formylpent-3-enoate

> <PUBCHEM_IUPAC_NAME>
[1-[(4-fluorophenyl)methyl]triazol-4-yl]methyl (E)-5-[(4aS,8aS)-5,5,8a-trimethyl-2-methylidene-3,4,4a,6,7,8-hexahydro-1H-naphthalen-1-yl]-3-formylpent-3-enoate

> <PUBCHEM_IUPAC_SYSTEMATIC_NAME>
[1-[(4-fluorophenyl)methyl]-1,2,3-triazol-4-yl]methyl (E)-5-[(4aS,8aS)-5,5,8a-trimethyl-2-methylidene-3,4,4a,6,7,8-hexahydro-1H-naphthalen-1-yl]-3-methanoyl-pent-3-enoate

> <PUBCHEM_IUPAC_TRADITIONAL_NAME>
(E)-5-[(4aS,8aS)-5,5,8a-trimethyl-2-methylene-decalin-1-yl]-3-formyl-pent-3-enoic acid [1-(4-fluorobenzyl)triazol-4-yl]methyl ester

> <PUBCHEM_IUPAC_INCHI>
InChI=1S/C30H38FN3O3/c1-21-6-13-27-29(2,3)14-5-15-30(27,4)26(21)12-9-23(19-35)16-28(36)37-20-25-18-34(33-32-25)17-22-7-10-24(31)11-8-22/h7-11,18-19,26-27H,1,5-6,12-17,20H2,2-4H3/b23-9+/t26?,27-,30+/m0/s1

> <PUBCHEM_IUPAC_INCHIKEY>
ICGSNLTYMCSXHB-VZRZFWOCSA-N

> <PUBCHEM_XLOGP3_AA>
5.8

> <PUBCHEM_EXACT_MASS>
507.28972024

> <PUBCHEM_MOLECULAR_FORMULA>
C30H38FN3O3

> <PUBCHEM_MOLECULAR_WEIGHT>
507.6

> <PUBCHEM_OPENEYE_CAN_SMILES>
CC1(CCCC2(C1CCC(=C)C2CC=C(CC(=O)OCC3=CN(N=N3)CC4=CC=C(C=C4)F)C=O)C)C

> <PUBCHEM_OPENEYE_ISO_SMILES>
C[C@]12CCCC([C@@H]1CCC(=C)C2C/C=C(\CC(=O)OCC3=CN(N=N3)CC4=CC=C(C=C4)F)/C=O)(C)C

> <PUBCHEM_CACTVS_TPSA>
74.1

> <PUBCHEM_MONOISOTOPIC_WEIGHT>
507.28972024

> <PUBCHEM_TOTAL_CHARGE>
0

> <PUBCHEM_HEAVY_ATOM_COUNT>
37

> <PUBCHEM_ATOM_DEF_STEREO_COUNT>
2

> <PUBCHEM_ATOM_UDEF_STEREO_COUNT>
1

> <PUBCHEM_BOND_DEF_STEREO_COUNT>
1

> <PUBCHEM_BOND_UDEF_STEREO_COUNT>
0

> <PUBCHEM_ISOTOPIC_ATOM_COUNT>
0

> <PUBCHEM_COMPONENT_COUNT>
1

> <PUBCHEM_CACTVS_TAUTO_COUNT>
-1

> <PUBCHEM_COORDINATE_TYPE>
1
5
255

> <PUBCHEM_BONDANNOTATIONS>
11  21  3
29  30  8
32  33  8
32  34  8
33  35  8
34  36  8
35  37  8
36  37  8
5  29  8
5  7  8
6  30  8
6  7  8
8  16  5
9  38  6

$$$$
