9839754
  -OEChem-02152223532D

 39 41  0     0  0  0  0  0  0999 V2000
    4.5981   -2.0352    0.0000 O   0  0  0  0  0  0  0  0  0  0  0  0
    6.8301    2.5036    0.0000 O   0  0  0  0  0  0  0  0  0  0  0  0
    5.2423    3.3126    0.0000 O   0  0  0  0  0  0  0  0  0  0  0  0
    8.0902    1.2436    0.0000 O   0  0  0  0  0  0  0  0  0  0  0  0
    6.3301    0.9648    0.0000 N   0  0  0  0  0  0  0  0  0  0  0  0
    5.5211    1.5526    0.0000 N   0  0  0  0  0  0  0  0  0  0  0  0
    6.3301   -0.0352    0.0000 C   0  0  0  0  0  0  0  0  0  0  0  0
    5.4641   -1.5352    0.0000 C   0  0  0  0  0  0  0  0  0  0  0  0
    5.4641   -0.5352    0.0000 C   0  0  0  0  0  0  0  0  0  0  0  0
    4.5981   -3.0352    0.0000 C   0  0  0  0  0  0  0  0  0  0  0  0
    3.7320   -3.5352    0.0000 C   0  0  0  0  0  0  0  0  0  0  0  0
    7.1962   -0.5352    0.0000 C   0  0  0  0  0  0  0  0  0  0  0  0
    6.3301   -2.0352    0.0000 C   0  0  0  0  0  0  0  0  0  0  0  0
    7.1962   -1.5352    0.0000 C   0  0  0  0  0  0  0  0  0  0  0  0
    7.1391    1.5526    0.0000 C   0  0  0  0  0  0  0  0  0  0  0  0
    2.8660   -3.0352    0.0000 C   0  0  0  0  0  0  0  0  0  0  0  0
    3.7320   -4.5352    0.0000 C   0  0  0  0  0  0  0  0  0  0  0  0
    5.8301    2.5036    0.0000 C   0  0  0  0  0  0  0  0  0  0  0  0
    2.0000   -3.5352    0.0000 C   0  0  0  0  0  0  0  0  0  0  0  0
    2.8660   -5.0352    0.0000 C   0  0  0  0  0  0  0  0  0  0  0  0
    2.0000   -4.5352    0.0000 C   0  0  0  0  0  0  0  0  0  0  0  0
    5.6491    4.2262    0.0000 C   0  0  0  0  0  0  0  0  0  0  0  0
    5.0613    5.0352    0.0000 C   0  0  0  0  0  0  0  0  0  0  0  0
    4.9272   -0.2252    0.0000 H   0  0  0  0  0  0  0  0  0  0  0  0
    4.8101   -3.6178    0.0000 H   0  0  0  0  0  0  0  0  0  0  0  0
    5.2087   -2.9276    0.0000 H   0  0  0  0  0  0  0  0  0  0  0  0
    7.7331   -0.2252    0.0000 H   0  0  0  0  0  0  0  0  0  0  0  0
    6.3301   -2.6552    0.0000 H   0  0  0  0  0  0  0  0  0  0  0  0
    7.7331   -1.8452    0.0000 H   0  0  0  0  0  0  0  0  0  0  0  0
    2.8660   -2.4152    0.0000 H   0  0  0  0  0  0  0  0  0  0  0  0
    4.2690   -4.8452    0.0000 H   0  0  0  0  0  0  0  0  0  0  0  0
    1.4631   -3.2252    0.0000 H   0  0  0  0  0  0  0  0  0  0  0  0
    2.8660   -5.6552    0.0000 H   0  0  0  0  0  0  0  0  0  0  0  0
    1.4631   -4.8452    0.0000 H   0  0  0  0  0  0  0  0  0  0  0  0
    6.1631    3.8795    0.0000 H   0  0  0  0  0  0  0  0  0  0  0  0
    6.0798    4.6722    0.0000 H   0  0  0  0  0  0  0  0  0  0  0  0
    5.5629    5.3996    0.0000 H   0  0  0  0  0  0  0  0  0  0  0  0
    4.6969    5.5368    0.0000 H   0  0  0  0  0  0  0  0  0  0  0  0
    4.5597    4.6708    0.0000 H   0  0  0  0  0  0  0  0  0  0  0  0
  1  8  1  0  0  0  0
  1 10  1  0  0  0  0
  2 15  1  0  0  0  0
  2 18  1  0  0  0  0
  3 18  1  0  0  0  0
  3 22  1  0  0  0  0
  4 15  2  0  0  0  0
  5  6  1  0  0  0  0
  5  7  1  0  0  0  0
  5 15  1  0  0  0  0
  6 18  2  0  0  0  0
  7  9  2  0  0  0  0
  7 12  1  0  0  0  0
  8  9  1  0  0  0  0
  8 13  2  0  0  0  0
  9 24  1  0  0  0  0
 10 11  1  0  0  0  0
 10 25  1  0  0  0  0
 10 26  1  0  0  0  0
 11 16  2  0  0  0  0
 11 17  1  0  0  0  0
 12 14  2  0  0  0  0
 12 27  1  0  0  0  0
 13 14  1  0  0  0  0
 13 28  1  0  0  0  0
 14 29  1  0  0  0  0
 16 19  1  0  0  0  0
 16 30  1  0  0  0  0
 17 20  2  0  0  0  0
 17 31  1  0  0  0  0
 19 21  2  0  0  0  0
 19 32  1  0  0  0  0
 20 21  1  0  0  0  0
 20 33  1  0  0  0  0
 21 34  1  0  0  0  0
 22 23  1  0  0  0  0
 22 35  1  0  0  0  0
 22 36  1  0  0  0  0
 23 37  1  0  0  0  0
 23 38  1  0  0  0  0
 23 39  1  0  0  0  0
M  END
> <PUBCHEM_COMPOUND_CID>
9839754

> <PUBCHEM_COMPOUND_CANONICALIZED>
1

> <PUBCHEM_CACTVS_COMPLEXITY>
434

> <PUBCHEM_CACTVS_HBOND_ACCEPTOR>
5

> <PUBCHEM_CACTVS_HBOND_DONOR>
0

> <PUBCHEM_CACTVS_ROTATABLE_BOND>
6

> <PUBCHEM_CACTVS_SUBSKEYS>
AAADceB7OAAAAAAAAAAAAAAAAAAAAQAAAAAwYAAAAAAAAAABQAAAHgAIAAAADAyhmAIyzoIABACoAiRCWACSDAAhIgAaiAAGbIgcJiLEsZumOCjmxBlM6AeQ0CMOAAAAAgAAAAAAAAAEAAAAAAAAAAAAAA==

> <PUBCHEM_IUPAC_OPENEYE_NAME>
3-(3-benzyloxyphenyl)-5-ethoxy-1,3,4-oxadiazol-2-one

> <PUBCHEM_IUPAC_CAS_NAME>
5-ethoxy-3-(3-phenylmethoxyphenyl)-1,3,4-oxadiazol-2-one

> <PUBCHEM_IUPAC_NAME_MARKUP>
5-ethoxy-3-(3-phenylmethoxyphenyl)-1,3,4-oxadiazol-2-one

> <PUBCHEM_IUPAC_NAME>
5-ethoxy-3-(3-phenylmethoxyphenyl)-1,3,4-oxadiazol-2-one

> <PUBCHEM_IUPAC_SYSTEMATIC_NAME>
5-ethoxy-3-(3-phenylmethoxyphenyl)-1,3,4-oxadiazol-2-one

> <PUBCHEM_IUPAC_TRADITIONAL_NAME>
3-(3-benzoxyphenyl)-5-ethoxy-1,3,4-oxadiazol-2-one

> <PUBCHEM_IUPAC_INCHI>
InChI=1S/C17H16N2O4/c1-2-21-16-18-19(17(20)23-16)14-9-6-10-15(11-14)22-12-13-7-4-3-5-8-13/h3-11H,2,12H2,1H3

> <PUBCHEM_IUPAC_INCHIKEY>
GUZKBNUSIOHJIR-UHFFFAOYSA-N

> <PUBCHEM_XLOGP3_AA>
3.7

> <PUBCHEM_EXACT_MASS>
312.11100700

> <PUBCHEM_MOLECULAR_FORMULA>
C17H16N2O4

> <PUBCHEM_MOLECULAR_WEIGHT>
312.32

> <PUBCHEM_OPENEYE_CAN_SMILES>
CCOC1=NN(C(=O)O1)C2=CC(=CC=C2)OCC3=CC=CC=C3

> <PUBCHEM_OPENEYE_ISO_SMILES>
CCOC1=NN(C(=O)O1)C2=CC(=CC=C2)OCC3=CC=CC=C3

> <PUBCHEM_CACTVS_TPSA>
60.4

> <PUBCHEM_MONOISOTOPIC_WEIGHT>
312.11100700

> <PUBCHEM_TOTAL_CHARGE>
0

> <PUBCHEM_HEAVY_ATOM_COUNT>
23

> <PUBCHEM_ATOM_DEF_STEREO_COUNT>
0

> <PUBCHEM_ATOM_UDEF_STEREO_COUNT>
0

> <PUBCHEM_BOND_DEF_STEREO_COUNT>
0

> <PUBCHEM_BOND_UDEF_STEREO_COUNT>
0

> <PUBCHEM_ISOTOPIC_ATOM_COUNT>
0

> <PUBCHEM_COMPONENT_COUNT>
1

> <PUBCHEM_CACTVS_TAUTO_COUNT>
-1

> <PUBCHEM_COORDINATE_TYPE>
1
5
255

> <PUBCHEM_BONDANNOTATIONS>
11  16  8
11  17  8
12  14  8
13  14  8
16  19  8
17  20  8
19  21  8
2  15  8
2  18  8
20  21  8
5  15  8
5  6  8
6  18  8
7  12  8
7  9  8
8  13  8
8  9  8

$$$$
