145971480
  -OEChem-02152210382D

 58 59  0     1  0  0  0  0  0999 V2000
    2.5369   -2.0482    0.0000 O   0  0  0  0  0  0  0  0  0  0  0  0
    5.1350   -2.5482    0.0000 O   0  0  0  0  0  0  0  0  0  0  0  0
    3.4030   -2.5482    0.0000 O   0  0  0  0  0  0  0  0  0  0  0  0
    5.1350    2.4518    0.0000 C   0  0  1  0  0  0  0  0  0  0  0  0
    5.1350    3.4518    0.0000 C   0  0  2  0  0  0  0  0  0  0  0  0
    6.0290    3.9865    0.0000 C   0  0  0  0  0  0  0  0  0  0  0  0
    4.2690    1.9518    0.0000 C   0  0  3  0  0  0  0  0  0  0  0  0
    6.0290    1.9171    0.0000 C   0  0  0  0  0  0  0  0  0  0  0  0
    4.2690    3.9518    0.0000 C   0  0  0  0  0  0  0  0  0  0  0  0
    6.9350    3.4726    0.0000 C   0  0  0  0  0  0  0  0  0  0  0  0
    6.9350    2.4310    0.0000 C   0  0  0  0  0  0  0  0  0  0  0  0
    5.1350    1.4518    0.0000 C   0  0  0  0  0  0  0  0  0  0  0  0
    3.4030    3.4518    0.0000 C   0  0  0  0  0  0  0  0  0  0  0  0
    3.4030    2.4518    0.0000 C   0  0  0  0  0  0  0  0  0  0  0  0
    6.5189    4.8582    0.0000 C   0  0  0  0  0  0  0  0  0  0  0  0
    5.5190    4.8466    0.0000 C   0  0  0  0  0  0  0  0  0  0  0  0
    4.2690    0.9518    0.0000 C   0  0  0  0  0  0  0  0  0  0  0  0
    2.5369    1.9518    0.0000 C   0  0  0  0  0  0  0  0  0  0  0  0
    3.4030    0.4518    0.0000 C   0  0  0  0  0  0  0  0  0  0  0  0
    3.4030   -0.5482    0.0000 C   0  0  0  0  0  0  0  0  0  0  0  0
    4.2690   -1.0482    0.0000 C   0  0  0  0  0  0  0  0  0  0  0  0
    2.5369   -1.0482    0.0000 C   0  0  0  0  0  0  0  0  0  0  0  0
    4.2690   -2.0482    0.0000 C   0  0  0  0  0  0  0  0  0  0  0  0
    5.1350   -3.5482    0.0000 C   0  0  0  0  0  0  0  0  0  0  0  0
    6.0010   -4.0482    0.0000 C   0  0  0  0  0  0  0  0  0  0  0  0
    6.8671   -4.5482    0.0000 C   0  0  0  0  0  0  0  0  0  0  0  0
    5.1285    4.3018    0.0000 H   0  0  0  0  0  0  0  0  0  0  0  0
    3.7320    1.6418    0.0000 H   0  0  0  0  0  0  0  0  0  0  0  0
    5.6244    1.4474    0.0000 H   0  0  0  0  0  0  0  0  0  0  0  0
    6.4226    1.4381    0.0000 H   0  0  0  0  0  0  0  0  0  0  0  0
    4.6675    4.4267    0.0000 H   0  0  0  0  0  0  0  0  0  0  0  0
    3.8705    4.4267    0.0000 H   0  0  0  0  0  0  0  0  0  0  0  0
    7.5459    3.3665    0.0000 H   0  0  0  0  0  0  0  0  0  0  0  0
    7.1441    4.0563    0.0000 H   0  0  0  0  0  0  0  0  0  0  0  0
    7.1441    1.8473    0.0000 H   0  0  0  0  0  0  0  0  0  0  0  0
    7.5459    2.5371    0.0000 H   0  0  0  0  0  0  0  0  0  0  0  0
    4.5150    1.4518    0.0000 H   0  0  0  0  0  0  0  0  0  0  0  0
    5.1350    0.8318    0.0000 H   0  0  0  0  0  0  0  0  0  0  0  0
    5.7550    1.4518    0.0000 H   0  0  0  0  0  0  0  0  0  0  0  0
    3.1909    4.0344    0.0000 H   0  0  0  0  0  0  0  0  0  0  0  0
    2.7924    3.3441    0.0000 H   0  0  0  0  0  0  0  0  0  0  0  0
    7.0594    4.5544    0.0000 H   0  0  0  0  0  0  0  0  0  0  0  0
    6.8227    5.3987    0.0000 H   0  0  0  0  0  0  0  0  0  0  0  0
    5.9784    5.1620    0.0000 H   0  0  0  0  0  0  0  0  0  0  0  0
    6.0523    5.1628    0.0000 H   0  0  0  0  0  0  0  0  0  0  0  0
    5.2028    5.3800    0.0000 H   0  0  0  0  0  0  0  0  0  0  0  0
    4.9857    4.5304    0.0000 H   0  0  0  0  0  0  0  0  0  0  0  0
    4.4810    0.3692    0.0000 H   0  0  0  0  0  0  0  0  0  0  0  0
    4.8796    1.0595    0.0000 H   0  0  0  0  0  0  0  0  0  0  0  0
    2.0000    2.2618    0.0000 H   0  0  0  0  0  0  0  0  0  0  0  0
    2.5369    1.3318    0.0000 H   0  0  0  0  0  0  0  0  0  0  0  0
    2.8660    0.7618    0.0000 H   0  0  0  0  0  0  0  0  0  0  0  0
    4.8796   -1.1559    0.0000 H   0  0  0  0  0  0  0  0  0  0  0  0
    4.4810   -0.4656    0.0000 H   0  0  0  0  0  0  0  0  0  0  0  0
    2.0000   -0.7382    0.0000 H   0  0  0  0  0  0  0  0  0  0  0  0
    4.5244   -3.4405    0.0000 H   0  0  0  0  0  0  0  0  0  0  0  0
    4.9230   -4.1308    0.0000 H   0  0  0  0  0  0  0  0  0  0  0  0
    7.4040   -4.8582    0.0000 H   0  0  0  0  0  0  0  0  0  0  0  0
  1 22  2  0  0  0  0
  2 23  1  0  0  0  0
  2 24  1  0  0  0  0
  3 23  2  0  0  0  0
  4  5  1  0  0  0  0
  4  7  1  0  0  0  0
  4  8  1  0  0  0  0
  4 12  1  1  0  0  0
  5  6  1  0  0  0  0
  5  9  1  0  0  0  0
  5 27  1  6  0  0  0
  6 10  1  0  0  0  0
  6 15  1  0  0  0  0
  6 16  1  0  0  0  0
  7 14  1  0  0  0  0
  7 17  1  0  0  0  0
  7 28  1  0  0  0  0
  8 11  1  0  0  0  0
  8 29  1  0  0  0  0
  8 30  1  0  0  0  0
  9 13  1  0  0  0  0
  9 31  1  0  0  0  0
  9 32  1  0  0  0  0
 10 11  1  0  0  0  0
 10 33  1  0  0  0  0
 10 34  1  0  0  0  0
 11 35  1  0  0  0  0
 11 36  1  0  0  0  0
 12 37  1  0  0  0  0
 12 38  1  0  0  0  0
 12 39  1  0  0  0  0
 13 14  1  0  0  0  0
 13 40  1  0  0  0  0
 13 41  1  0  0  0  0
 14 18  2  0  0  0  0
 15 42  1  0  0  0  0
 15 43  1  0  0  0  0
 15 44  1  0  0  0  0
 16 45  1  0  0  0  0
 16 46  1  0  0  0  0
 16 47  1  0  0  0  0
 17 19  1  0  0  0  0
 17 48  1  0  0  0  0
 17 49  1  0  0  0  0
 18 50  1  0  0  0  0
 18 51  1  0  0  0  0
 19 20  2  0  0  0  0
 19 52  1  0  0  0  0
 20 21  1  0  0  0  0
 20 22  1  0  0  0  0
 21 23  1  0  0  0  0
 21 53  1  0  0  0  0
 21 54  1  0  0  0  0
 22 55  1  0  0  0  0
 24 25  1  0  0  0  0
 24 56  1  0  0  0  0
 24 57  1  0  0  0  0
 25 26  3  0  0  0  0
 26 58  1  0  0  0  0
M  END
> <PUBCHEM_COMPOUND_CID>
145971480

> <PUBCHEM_COMPOUND_CANONICALIZED>
1

> <PUBCHEM_CACTVS_COMPLEXITY>
646

> <PUBCHEM_CACTVS_HBOND_ACCEPTOR>
3

> <PUBCHEM_CACTVS_HBOND_DONOR>
0

> <PUBCHEM_CACTVS_ROTATABLE_BOND>
7

> <PUBCHEM_CACTVS_SUBSKEYS>
AAADcfB4MAAAAAAAAAAAAAAAAAAAAAAAAAAwYAAAAAAAAADAAAAAGgAAAAAADwCggAICCAAABADIGijSiAAAAAAgAAAACAEAAEgAABIAAQACAAAEwAAIAYMDgMAPgAAAAAAAAAAAAAQAACAAAAAAAAAAAA==

> <PUBCHEM_IUPAC_OPENEYE_NAME>
prop-2-ynyl (E)-5-[(4aS,8aS)-5,5,8a-trimethyl-2-methylene-decalin-1-yl]-3-formyl-pent-3-enoate

> <PUBCHEM_IUPAC_CAS_NAME>
(E)-5-[(4aS,8aS)-5,5,8a-trimethyl-2-methylene-3,4,4a,6,7,8-hexahydro-1H-naphthalen-1-yl]-3-formyl-3-pentenoic acid prop-2-ynyl ester

> <PUBCHEM_IUPAC_NAME_MARKUP>
prop-2-ynyl (<I>E</I>)-5-[(4<I>a</I><I>S</I>,8<I>a</I><I>S</I>)-5,5,8<I>a</I>-trimethyl-2-methylidene-3,4,4<I>a</I>,6,7,8-hexahydro-1<I>H</I>-naphthalen-1-yl]-3-formylpent-3-enoate

> <PUBCHEM_IUPAC_NAME>
prop-2-ynyl (E)-5-[(4aS,8aS)-5,5,8a-trimethyl-2-methylidene-3,4,4a,6,7,8-hexahydro-1H-naphthalen-1-yl]-3-formylpent-3-enoate

> <PUBCHEM_IUPAC_SYSTEMATIC_NAME>
prop-2-ynyl (E)-5-[(4aS,8aS)-5,5,8a-trimethyl-2-methylidene-3,4,4a,6,7,8-hexahydro-1H-naphthalen-1-yl]-3-methanoyl-pent-3-enoate

> <PUBCHEM_IUPAC_TRADITIONAL_NAME>
(E)-5-[(4aS,8aS)-5,5,8a-trimethyl-2-methylene-decalin-1-yl]-3-formyl-pent-3-enoic acid propargyl ester

> <PUBCHEM_IUPAC_INCHI>
InChI=1S/C23H32O3/c1-6-14-26-21(25)15-18(16-24)9-10-19-17(2)8-11-20-22(3,4)12-7-13-23(19,20)5/h1,9,16,19-20H,2,7-8,10-15H2,3-5H3/b18-9+/t19?,20-,23+/m0/s1

> <PUBCHEM_IUPAC_INCHIKEY>
NUNLEKGRODVYKH-REEBVUFHSA-N

> <PUBCHEM_XLOGP3_AA>
5

> <PUBCHEM_EXACT_MASS>
356.23514488

> <PUBCHEM_MOLECULAR_FORMULA>
C23H32O3

> <PUBCHEM_MOLECULAR_WEIGHT>
356.5

> <PUBCHEM_OPENEYE_CAN_SMILES>
CC1(CCCC2(C1CCC(=C)C2CC=C(CC(=O)OCC#C)C=O)C)C

> <PUBCHEM_OPENEYE_ISO_SMILES>
C[C@]12CCCC([C@@H]1CCC(=C)C2C/C=C(\CC(=O)OCC#C)/C=O)(C)C

> <PUBCHEM_CACTVS_TPSA>
43.4

> <PUBCHEM_MONOISOTOPIC_WEIGHT>
356.23514488

> <PUBCHEM_TOTAL_CHARGE>
0

> <PUBCHEM_HEAVY_ATOM_COUNT>
26

> <PUBCHEM_ATOM_DEF_STEREO_COUNT>
2

> <PUBCHEM_ATOM_UDEF_STEREO_COUNT>
1

> <PUBCHEM_BOND_DEF_STEREO_COUNT>
1

> <PUBCHEM_BOND_UDEF_STEREO_COUNT>
0

> <PUBCHEM_ISOTOPIC_ATOM_COUNT>
0

> <PUBCHEM_COMPONENT_COUNT>
1

> <PUBCHEM_CACTVS_TAUTO_COUNT>
-1

> <PUBCHEM_COORDINATE_TYPE>
1
5
255

> <PUBCHEM_BONDANNOTATIONS>
4  12  5
5  27  6
7  17  3

$$$$
