9908564
  -OEChem-02162203302D

 55 57  0     1  0  0  0  0  0999 V2000
    4.5988   -5.9332    0.0000 O   0  0  0  0  0  0  0  0  0  0  0  0
    2.0000   -4.4328    0.0000 O   0  0  0  0  0  0  0  0  0  0  0  0
    5.4646   -4.4328    0.0000 O   0  0  0  0  0  0  0  0  0  0  0  0
    3.7326   -2.4328    0.0000 O   0  0  0  0  0  0  0  0  0  0  0  0
    7.6967   -2.5668    0.0000 O   0  0  0  0  0  0  0  0  0  0  0  0
    6.8306   -4.0668    0.0000 O   0  0  0  0  0  0  0  0  0  0  0  0
    7.6967   -1.5668    0.0000 O   0  0  0  0  0  0  0  0  0  0  0  0
    5.9646   -1.5668    0.0000 N   0  0  0  0  0  0  0  0  0  0  0  0
    3.7326   -5.4328    0.0000 C   0  0  3  0  0  0  0  0  0  0  0  0
    4.5986   -4.9328    0.0000 C   0  0  3  0  0  0  0  0  0  0  0  0
    2.8665   -4.9328    0.0000 C   0  0  3  0  0  0  0  0  0  0  0  0
    2.8665   -3.9328    0.0000 C   0  0  3  0  0  0  0  0  0  0  0  0
    4.5986   -3.9328    0.0000 C   0  0  3  0  0  0  0  0  0  0  0  0
    3.7326   -3.4328    0.0000 C   0  0  0  0  0  0  0  0  0  0  0  0
    5.0986   -3.0668    0.0000 C   0  0  0  0  0  0  0  0  0  0  0  0
    5.9646   -2.5668    0.0000 C   0  0  3  0  0  0  0  0  0  0  0  0
    6.8306   -3.0668    0.0000 C   0  0  0  0  0  0  0  0  0  0  0  0
    6.8306   -1.0668    0.0000 C   0  0  0  0  0  0  0  0  0  0  0  0
    6.8306   -0.0668    0.0000 C   0  0  0  0  0  0  0  0  0  0  0  0
    8.5627   -3.0668    0.0000 C   0  0  0  0  0  0  0  0  0  0  0  0
    7.6967    0.4332    0.0000 C   0  0  0  0  0  0  0  0  0  0  0  0
    7.6967    1.4332    0.0000 C   0  0  0  0  0  0  0  0  0  0  0  0
    8.5627    1.9332    0.0000 C   0  0  0  0  0  0  0  0  0  0  0  0
    8.5627    2.9332    0.0000 C   0  0  0  0  0  0  0  0  0  0  0  0
    9.4287    3.4332    0.0000 C   0  0  0  0  0  0  0  0  0  0  0  0
    9.4287    4.4332    0.0000 C   0  0  0  0  0  0  0  0  0  0  0  0
   10.2947    4.9332    0.0000 C   0  0  0  0  0  0  0  0  0  0  0  0
   10.2947    5.9332    0.0000 C   0  0  0  0  0  0  0  0  0  0  0  0
    3.4225   -5.9697    0.0000 H   0  0  0  0  0  0  0  0  0  0  0  0
    5.2186   -4.9327    0.0000 H   0  0  0  0  0  0  0  0  0  0  0  0
    2.5566   -5.4698    0.0000 H   0  0  0  0  0  0  0  0  0  0  0  0
    2.5566   -3.3958    0.0000 H   0  0  0  0  0  0  0  0  0  0  0  0
    4.9909   -2.4562    0.0000 H   0  0  0  0  0  0  0  0  0  0  0  0
    5.5370   -3.5052    0.0000 H   0  0  0  0  0  0  0  0  0  0  0  0
    5.4646   -5.0528    0.0000 H   0  0  0  0  0  0  0  0  0  0  0  0
    6.5016   -2.2568    0.0000 H   0  0  0  0  0  0  0  0  0  0  0  0
    5.4277   -1.2568    0.0000 H   0  0  0  0  0  0  0  0  0  0  0  0
    6.2937    0.2432    0.0000 H   0  0  0  0  0  0  0  0  0  0  0  0
    8.2527   -3.6037    0.0000 H   0  0  0  0  0  0  0  0  0  0  0  0
    9.0996   -3.3768    0.0000 H   0  0  0  0  0  0  0  0  0  0  0  0
    8.8727   -2.5298    0.0000 H   0  0  0  0  0  0  0  0  0  0  0  0
    8.2336    0.1232    0.0000 H   0  0  0  0  0  0  0  0  0  0  0  0
    7.4846    2.0158    0.0000 H   0  0  0  0  0  0  0  0  0  0  0  0
    7.0861    1.3256    0.0000 H   0  0  0  0  0  0  0  0  0  0  0  0
    8.7747    1.3506    0.0000 H   0  0  0  0  0  0  0  0  0  0  0  0
    9.1733    2.0409    0.0000 H   0  0  0  0  0  0  0  0  0  0  0  0
    8.3506    3.5158    0.0000 H   0  0  0  0  0  0  0  0  0  0  0  0
    7.9521    2.8256    0.0000 H   0  0  0  0  0  0  0  0  0  0  0  0
    9.6408    2.8506    0.0000 H   0  0  0  0  0  0  0  0  0  0  0  0
   10.0393    3.5409    0.0000 H   0  0  0  0  0  0  0  0  0  0  0  0
    8.8918    4.7432    0.0000 H   0  0  0  0  0  0  0  0  0  0  0  0
   10.8317    4.6232    0.0000 H   0  0  0  0  0  0  0  0  0  0  0  0
   10.9147    5.9332    0.0000 H   0  0  0  0  0  0  0  0  0  0  0  0
   10.2947    6.5532    0.0000 H   0  0  0  0  0  0  0  0  0  0  0  0
    9.6747    5.9332    0.0000 H   0  0  0  0  0  0  0  0  0  0  0  0
  1  9  1  0  0  0  0
  1 10  1  0  0  0  0
  2 11  1  0  0  0  0
  2 12  1  0  0  0  0
  3 13  1  0  0  0  0
  3 35  1  0  0  0  0
  4 14  2  0  0  0  0
  5 17  1  0  0  0  0
  5 20  1  0  0  0  0
  6 17  2  0  0  0  0
  7 18  2  0  0  0  0
  8 16  1  0  0  0  0
  8 18  1  0  0  0  0
  8 37  1  0  0  0  0
  9 10  1  0  0  0  0
  9 11  1  0  0  0  0
  9 29  1  0  0  0  0
 10 13  1  0  0  0  0
 10 30  1  0  0  0  0
 11 12  1  0  0  0  0
 11 31  1  0  0  0  0
 12 14  1  0  0  0  0
 12 32  1  0  0  0  0
 13 14  1  0  0  0  0
 13 15  1  0  0  0  0
 15 16  1  0  0  0  0
 15 33  1  0  0  0  0
 15 34  1  0  0  0  0
 16 17  1  0  0  0  0
 16 36  1  0  0  0  0
 18 19  1  0  0  0  0
 19 21  2  0  0  0  0
 19 38  1  0  0  0  0
 20 39  1  0  0  0  0
 20 40  1  0  0  0  0
 20 41  1  0  0  0  0
 21 22  1  0  0  0  0
 21 42  1  0  0  0  0
 22 23  1  0  0  0  0
 22 43  1  0  0  0  0
 22 44  1  0  0  0  0
 23 24  1  0  0  0  0
 23 45  1  0  0  0  0
 23 46  1  0  0  0  0
 24 25  1  0  0  0  0
 24 47  1  0  0  0  0
 24 48  1  0  0  0  0
 25 26  1  0  0  0  0
 25 49  1  0  0  0  0
 25 50  1  0  0  0  0
 26 27  2  0  0  0  0
 26 51  1  0  0  0  0
 27 28  1  0  0  0  0
 27 52  1  0  0  0  0
 28 53  1  0  0  0  0
 28 54  1  0  0  0  0
 28 55  1  0  0  0  0
M  END
> <PUBCHEM_COMPOUND_CID>
9908564

> <PUBCHEM_COMPOUND_CANONICALIZED>
1

> <PUBCHEM_CACTVS_COMPLEXITY>
688

> <PUBCHEM_CACTVS_HBOND_ACCEPTOR>
7

> <PUBCHEM_CACTVS_HBOND_DONOR>
2

> <PUBCHEM_CACTVS_ROTATABLE_BOND>
11

> <PUBCHEM_CACTVS_SUBSKEYS>
AAADceB6OAAAAAAAAAAAAAAAEiQAAAAAAAAwAAAABIkAAAAAAAAAHgAQCAAADHzhgAYCCALABgCIAKHSGAKAAAAgAAAICIHIAEgDABYAgSQHQAAHtgCbAYP+/r/uAAAAAAAAAABCAAIQABCAAAAAAAAAAA==

> <PUBCHEM_IUPAC_OPENEYE_NAME>
methyl 2-[[(2E,8E)-deca-2,8-dienoyl]amino]-3-(5-hydroxy-6-oxo-3,8-dioxatricyclo[5.1.0.02,4]octan-5-yl)propanoate

> <PUBCHEM_IUPAC_CAS_NAME>
3-(5-hydroxy-6-oxo-3,8-dioxatricyclo[5.1.0.02,4]octan-5-yl)-2-[[(2E,8E)-1-oxodeca-2,8-dienyl]amino]propanoic acid methyl ester

> <PUBCHEM_IUPAC_NAME_MARKUP>
methyl 2-[[(2<I>E</I>,8<I>E</I>)-deca-2,8-dienoyl]amino]-3-(5-hydroxy-6-oxo-3,8-dioxatricyclo[5.1.0.0<SUP>2,4</SUP>]octan-5-yl)propanoate

> <PUBCHEM_IUPAC_NAME>
methyl 2-[[(2E,8E)-deca-2,8-dienoyl]amino]-3-(5-hydroxy-6-oxo-3,8-dioxatricyclo[5.1.0.02,4]octan-5-yl)propanoate

> <PUBCHEM_IUPAC_SYSTEMATIC_NAME>
methyl 2-[[(2E,8E)-deca-2,8-dienoyl]amino]-3-(5-oxidanyl-6-oxidanylidene-3,8-dioxatricyclo[5.1.0.02,4]octan-5-yl)propanoate

> <PUBCHEM_IUPAC_TRADITIONAL_NAME>
2-[[(2E,8E)-deca-2,8-dienoyl]amino]-3-(5-hydroxy-6-keto-3,8-dioxatricyclo[5.1.0.02,4]octan-5-yl)propionic acid methyl ester

> <PUBCHEM_IUPAC_INCHI>
InChI=1S/C20H27NO7/c1-3-4-5-6-7-8-9-10-13(22)21-12(19(24)26-2)11-20(25)17(23)15-14(27-15)16-18(20)28-16/h3-4,9-10,12,14-16,18,25H,5-8,11H2,1-2H3,(H,21,22)/b4-3+,10-9+

> <PUBCHEM_IUPAC_INCHIKEY>
DJQAYXQSWDXHIP-SCPMJEMWSA-N

> <PUBCHEM_XLOGP3_AA>
1.9

> <PUBCHEM_EXACT_MASS>
393.17875220

> <PUBCHEM_MOLECULAR_FORMULA>
C20H27NO7

> <PUBCHEM_MOLECULAR_WEIGHT>
393.4

> <PUBCHEM_OPENEYE_CAN_SMILES>
CC=CCCCCC=CC(=O)NC(CC1(C2C(O2)C3C(C1=O)O3)O)C(=O)OC

> <PUBCHEM_OPENEYE_ISO_SMILES>
C/C=C/CCCC/C=C/C(=O)NC(CC1(C2C(O2)C3C(C1=O)O3)O)C(=O)OC

> <PUBCHEM_CACTVS_TPSA>
118

> <PUBCHEM_MONOISOTOPIC_WEIGHT>
393.17875220

> <PUBCHEM_TOTAL_CHARGE>
0

> <PUBCHEM_HEAVY_ATOM_COUNT>
28

> <PUBCHEM_ATOM_DEF_STEREO_COUNT>
0

> <PUBCHEM_ATOM_UDEF_STEREO_COUNT>
6

> <PUBCHEM_BOND_DEF_STEREO_COUNT>
2

> <PUBCHEM_BOND_UDEF_STEREO_COUNT>
0

> <PUBCHEM_ISOTOPIC_ATOM_COUNT>
0

> <PUBCHEM_COMPONENT_COUNT>
1

> <PUBCHEM_CACTVS_TAUTO_COUNT>
-1

> <PUBCHEM_COORDINATE_TYPE>
1
5
255

> <PUBCHEM_BONDANNOTATIONS>
10  1  3
9  1  3
12  14  3
13  15  3
16  15  3
11  2  3

$$$$
