10094001
  -OEChem-02162203232D

 42 44  0     0  0  0  0  0  0999 V2000
    5.4791   -4.3874    0.0000 Cl  0  0  0  0  0  0  0  0  0  0  0  0
    4.3913    1.9604    0.0000 S   0  0  0  0  0  0  0  0  0  0  0  0
    2.2212    3.4739    0.0000 F   0  0  0  0  0  0  0  0  0  0  0  0
    2.0000    2.0771    0.0000 F   0  0  0  0  0  0  0  0  0  0  0  0
    3.6180    3.2527    0.0000 F   0  0  0  0  0  0  0  0  0  0  0  0
    6.1602    2.8739    0.0000 O   0  0  0  0  0  0  0  0  0  0  0  0
    5.9791    1.1514    0.0000 N   0  0  0  0  0  0  0  0  0  0  0  0
    7.5614    1.8559    0.0000 N   0  0  0  0  0  0  0  0  0  0  0  0
    6.2881    0.2003    0.0000 N   0  0  0  0  0  0  0  0  0  0  0  0
    4.6701    0.2003    0.0000 N   0  0  0  0  0  0  0  0  0  0  0  0
    6.5669    1.9604    0.0000 C   0  0  0  0  0  0  0  0  0  0  0  0
    8.1492    2.6649    0.0000 C   0  0  0  0  0  0  0  0  0  0  0  0
    4.9791    1.1514    0.0000 C   0  0  0  0  0  0  0  0  0  0  0  0
    5.4791   -0.3875    0.0000 C   0  0  0  0  0  0  0  0  0  0  0  0
    5.4791   -1.3874    0.0000 C   0  0  0  0  0  0  0  0  0  0  0  0
    7.9682    0.9423    0.0000 C   0  0  0  0  0  0  0  0  0  0  0  0
    7.7425    3.5784    0.0000 C   0  0  0  0  0  0  0  0  0  0  0  0
    9.1437    2.5604    0.0000 C   0  0  0  0  0  0  0  0  0  0  0  0
    4.6131   -1.8874    0.0000 C   0  0  0  0  0  0  0  0  0  0  0  0
    6.3451   -1.8874    0.0000 C   0  0  0  0  0  0  0  0  0  0  0  0
    3.3968    1.8559    0.0000 C   0  0  0  0  0  0  0  0  0  0  0  0
    8.3302    4.3874    0.0000 C   0  0  0  0  0  0  0  0  0  0  0  0
    9.7315    3.3694    0.0000 C   0  0  0  0  0  0  0  0  0  0  0  0
    4.6131   -2.8874    0.0000 C   0  0  0  0  0  0  0  0  0  0  0  0
    6.3451   -2.8874    0.0000 C   0  0  0  0  0  0  0  0  0  0  0  0
    9.3248    4.2829    0.0000 C   0  0  0  0  0  0  0  0  0  0  0  0
    5.4791   -3.3874    0.0000 C   0  0  0  0  0  0  0  0  0  0  0  0
    2.8090    2.6649    0.0000 C   0  0  0  0  0  0  0  0  0  0  0  0
    7.4018    0.6902    0.0000 H   0  0  0  0  0  0  0  0  0  0  0  0
    8.2203    0.3759    0.0000 H   0  0  0  0  0  0  0  0  0  0  0  0
    8.5346    1.1945    0.0000 H   0  0  0  0  0  0  0  0  0  0  0  0
    7.1259    3.6432    0.0000 H   0  0  0  0  0  0  0  0  0  0  0  0
    9.3959    1.9940    0.0000 H   0  0  0  0  0  0  0  0  0  0  0  0
    4.0762   -1.5774    0.0000 H   0  0  0  0  0  0  0  0  0  0  0  0
    6.8821   -1.5774    0.0000 H   0  0  0  0  0  0  0  0  0  0  0  0
    2.8396    1.5841    0.0000 H   0  0  0  0  0  0  0  0  0  0  0  0
    3.5677    1.2599    0.0000 H   0  0  0  0  0  0  0  0  0  0  0  0
    8.0781    4.9538    0.0000 H   0  0  0  0  0  0  0  0  0  0  0  0
   10.3481    3.3046    0.0000 H   0  0  0  0  0  0  0  0  0  0  0  0
    4.0762   -3.1974    0.0000 H   0  0  0  0  0  0  0  0  0  0  0  0
    6.8821   -3.1974    0.0000 H   0  0  0  0  0  0  0  0  0  0  0  0
    9.6892    4.7845    0.0000 H   0  0  0  0  0  0  0  0  0  0  0  0
  1 27  1  0  0  0  0
  2 13  1  0  0  0  0
  2 21  1  0  0  0  0
  3 28  1  0  0  0  0
  4 28  1  0  0  0  0
  5 28  1  0  0  0  0
  6 11  2  0  0  0  0
  7  9  1  0  0  0  0
  7 11  1  0  0  0  0
  7 13  1  0  0  0  0
  8 11  1  0  0  0  0
  8 12  1  0  0  0  0
  8 16  1  0  0  0  0
  9 14  2  0  0  0  0
 10 13  2  0  0  0  0
 10 14  1  0  0  0  0
 12 17  2  0  0  0  0
 12 18  1  0  0  0  0
 14 15  1  0  0  0  0
 15 19  2  0  0  0  0
 15 20  1  0  0  0  0
 16 29  1  0  0  0  0
 16 30  1  0  0  0  0
 16 31  1  0  0  0  0
 17 22  1  0  0  0  0
 17 32  1  0  0  0  0
 18 23  2  0  0  0  0
 18 33  1  0  0  0  0
 19 24  1  0  0  0  0
 19 34  1  0  0  0  0
 20 25  2  0  0  0  0
 20 35  1  0  0  0  0
 21 28  1  0  0  0  0
 21 36  1  0  0  0  0
 21 37  1  0  0  0  0
 22 26  2  0  0  0  0
 22 38  1  0  0  0  0
 23 26  1  0  0  0  0
 23 39  1  0  0  0  0
 24 27  2  0  0  0  0
 24 40  1  0  0  0  0
 25 27  1  0  0  0  0
 25 41  1  0  0  0  0
 26 42  1  0  0  0  0
M  END
> <PUBCHEM_COMPOUND_CID>
10094001

> <PUBCHEM_COMPOUND_CANONICALIZED>
1

> <PUBCHEM_CACTVS_COMPLEXITY>
528

> <PUBCHEM_CACTVS_HBOND_ACCEPTOR>
7

> <PUBCHEM_CACTVS_HBOND_DONOR>
0

> <PUBCHEM_CACTVS_ROTATABLE_BOND>
4

> <PUBCHEM_CACTVS_SUBSKEYS>
AAADccB7oYBEAAAAAAAAAAAAAAAAAWAAAAAwYAAAAAAAAAAB0AAAHwYIAAAADAqFWzSz0IcIEAiqAiZidACS0AthB7AfiCAoZpiIKKLBm5GEIAhojwJIyCcQgAAOBAAAAAAAAAAIAAAAAAAAAAAAAAAAAA==

> <PUBCHEM_IUPAC_OPENEYE_NAME>
3-(4-chlorophenyl)-N-methyl-N-phenyl-5-(2,2,2-trifluoroethylsulfanyl)-1,2,4-triazole-1-carboxamide

> <PUBCHEM_IUPAC_CAS_NAME>
3-(4-chlorophenyl)-N-methyl-N-phenyl-5-(2,2,2-trifluoroethylthio)-1,2,4-triazole-1-carboxamide

> <PUBCHEM_IUPAC_NAME_MARKUP>
3-(4-chlorophenyl)-<I>N</I>-methyl-<I>N</I>-phenyl-5-(2,2,2-trifluoroethylsulfanyl)-1,2,4-triazole-1-carboxamide

> <PUBCHEM_IUPAC_NAME>
3-(4-chlorophenyl)-N-methyl-N-phenyl-5-(2,2,2-trifluoroethylsulfanyl)-1,2,4-triazole-1-carboxamide

> <PUBCHEM_IUPAC_SYSTEMATIC_NAME>
3-(4-chlorophenyl)-N-methyl-N-phenyl-5-[2,2,2-tris(fluoranyl)ethylsulfanyl]-1,2,4-triazole-1-carboxamide

> <PUBCHEM_IUPAC_TRADITIONAL_NAME>
3-(4-chlorophenyl)-N-methyl-N-phenyl-5-(2,2,2-trifluoroethylthio)-1,2,4-triazole-1-carboxamide

> <PUBCHEM_IUPAC_INCHI>
InChI=1S/C18H14ClF3N4OS/c1-25(14-5-3-2-4-6-14)17(27)26-16(28-11-18(20,21)22)23-15(24-26)12-7-9-13(19)10-8-12/h2-10H,11H2,1H3

> <PUBCHEM_IUPAC_INCHIKEY>
LOFGEQLLLVJCDY-UHFFFAOYSA-N

> <PUBCHEM_XLOGP3_AA>
5.7

> <PUBCHEM_EXACT_MASS>
426.0528944

> <PUBCHEM_MOLECULAR_FORMULA>
C18H14ClF3N4OS

> <PUBCHEM_MOLECULAR_WEIGHT>
426.8

> <PUBCHEM_OPENEYE_CAN_SMILES>
CN(C1=CC=CC=C1)C(=O)N2C(=NC(=N2)C3=CC=C(C=C3)Cl)SCC(F)(F)F

> <PUBCHEM_OPENEYE_ISO_SMILES>
CN(C1=CC=CC=C1)C(=O)N2C(=NC(=N2)C3=CC=C(C=C3)Cl)SCC(F)(F)F

> <PUBCHEM_CACTVS_TPSA>
76.3

> <PUBCHEM_MONOISOTOPIC_WEIGHT>
426.0528944

> <PUBCHEM_TOTAL_CHARGE>
0

> <PUBCHEM_HEAVY_ATOM_COUNT>
28

> <PUBCHEM_ATOM_DEF_STEREO_COUNT>
0

> <PUBCHEM_ATOM_UDEF_STEREO_COUNT>
0

> <PUBCHEM_BOND_DEF_STEREO_COUNT>
0

> <PUBCHEM_BOND_UDEF_STEREO_COUNT>
0

> <PUBCHEM_ISOTOPIC_ATOM_COUNT>
0

> <PUBCHEM_COMPONENT_COUNT>
1

> <PUBCHEM_CACTVS_TAUTO_COUNT>
-1

> <PUBCHEM_COORDINATE_TYPE>
1
5
255

> <PUBCHEM_BONDANNOTATIONS>
10  13  8
10  14  8
12  17  8
12  18  8
15  19  8
15  20  8
17  22  8
18  23  8
19  24  8
20  25  8
22  26  8
23  26  8
24  27  8
25  27  8
7  13  8
7  9  8
9  14  8

$$$$
