5311436
  -OEChem-02202223202D

 53 52  0     1  0  0  0  0  0999 V2000
    8.9282   -1.3840    0.0000 O   0  0  0  0  0  0  0  0  0  0  0  0
    8.9282    1.6160    0.0000 O   0  0  0  0  0  0  0  0  0  0  0  0
   12.3923   -0.3840    0.0000 O   0  0  0  0  0  0  0  0  0  0  0  0
    7.4282   -2.2499    0.0000 O   0  0  0  0  0  0  0  0  0  0  0  0
    9.7942    3.1160    0.0000 O   0  0  0  0  0  0  0  0  0  0  0  0
   13.2583    1.1160    0.0000 O   0  0  0  0  0  0  0  0  0  0  0  0
    8.9282   -0.3840    0.0000 C   0  0  1  0  0  0  0  0  0  0  0  0
    8.0622    0.1160    0.0000 C   0  0  0  0  0  0  0  0  0  0  0  0
    9.7942    0.1160    0.0000 C   0  0  0  0  0  0  0  0  0  0  0  0
    7.1962   -0.3840    0.0000 C   0  0  0  0  0  0  0  0  0  0  0  0
   10.6603   -0.3840    0.0000 C   0  0  0  0  0  0  0  0  0  0  0  0
    6.3301    0.1160    0.0000 C   0  0  0  0  0  0  0  0  0  0  0  0
    9.7942    1.1160    0.0000 C   0  0  0  0  0  0  0  0  0  0  0  0
    8.4282   -2.2500    0.0000 C   0  0  0  0  0  0  0  0  0  0  0  0
    6.3301    1.1160    0.0000 C   0  0  0  0  0  0  0  0  0  0  0  0
   11.5263    0.1160    0.0000 C   0  0  0  0  0  0  0  0  0  0  0  0
    8.9282   -3.1160    0.0000 C   0  0  0  0  0  0  0  0  0  0  0  0
    5.4641   -0.3840    0.0000 C   0  0  0  0  0  0  0  0  0  0  0  0
    8.9282    2.6160    0.0000 C   0  0  0  0  0  0  0  0  0  0  0  0
    4.5981   -0.8840    0.0000 C   0  0  0  0  0  0  0  0  0  0  0  0
    2.8660   -0.8840    0.0000 C   0  0  0  0  0  0  0  0  0  0  0  0
    3.7320   -1.3840    0.0000 C   0  0  0  0  0  0  0  0  0  0  0  0
    8.0622    3.1160    0.0000 C   0  0  0  0  0  0  0  0  0  0  0  0
   13.2583    0.1160    0.0000 C   0  0  0  0  0  0  0  0  0  0  0  0
    2.0000   -1.3840    0.0000 C   0  0  0  0  0  0  0  0  0  0  0  0
    2.8660    0.1160    0.0000 C   0  0  0  0  0  0  0  0  0  0  0  0
   14.1244   -0.3840    0.0000 C   0  0  0  0  0  0  0  0  0  0  0  0
    9.4651   -0.6940    0.0000 H   0  0  0  0  0  0  0  0  0  0  0  0
    8.4607    0.5910    0.0000 H   0  0  0  0  0  0  0  0  0  0  0  0
    7.6636    0.5910    0.0000 H   0  0  0  0  0  0  0  0  0  0  0  0
    6.8862   -0.9210    0.0000 H   0  0  0  0  0  0  0  0  0  0  0  0
   10.6603   -1.0040    0.0000 H   0  0  0  0  0  0  0  0  0  0  0  0
   10.3312    1.4260    0.0000 H   0  0  0  0  0  0  0  0  0  0  0  0
    6.9501    1.1160    0.0000 H   0  0  0  0  0  0  0  0  0  0  0  0
    6.3301    1.7360    0.0000 H   0  0  0  0  0  0  0  0  0  0  0  0
    5.7101    1.1160    0.0000 H   0  0  0  0  0  0  0  0  0  0  0  0
   11.5263    0.7360    0.0000 H   0  0  0  0  0  0  0  0  0  0  0  0
    8.3913   -3.4260    0.0000 H   0  0  0  0  0  0  0  0  0  0  0  0
    9.2383   -3.6530    0.0000 H   0  0  0  0  0  0  0  0  0  0  0  0
    9.4652   -2.8060    0.0000 H   0  0  0  0  0  0  0  0  0  0  0  0
    3.7320   -2.0040    0.0000 H   0  0  0  0  0  0  0  0  0  0  0  0
    8.3722    3.6530    0.0000 H   0  0  0  0  0  0  0  0  0  0  0  0
    7.5252    3.4260    0.0000 H   0  0  0  0  0  0  0  0  0  0  0  0
    7.7522    2.5791    0.0000 H   0  0  0  0  0  0  0  0  0  0  0  0
    1.6900   -0.8470    0.0000 H   0  0  0  0  0  0  0  0  0  0  0  0
    1.4631   -1.6940    0.0000 H   0  0  0  0  0  0  0  0  0  0  0  0
    2.3100   -1.9209    0.0000 H   0  0  0  0  0  0  0  0  0  0  0  0
    3.4860    0.1160    0.0000 H   0  0  0  0  0  0  0  0  0  0  0  0
    2.8660    0.7360    0.0000 H   0  0  0  0  0  0  0  0  0  0  0  0
    2.2460    0.1160    0.0000 H   0  0  0  0  0  0  0  0  0  0  0  0
   13.8144   -0.9209    0.0000 H   0  0  0  0  0  0  0  0  0  0  0  0
   14.6613   -0.6940    0.0000 H   0  0  0  0  0  0  0  0  0  0  0  0
   14.4344    0.1530    0.0000 H   0  0  0  0  0  0  0  0  0  0  0  0
  7  1  1  1  0  0  0
  1 14  1  0  0  0  0
  2 13  1  0  0  0  0
  2 19  1  0  0  0  0
  3 16  1  0  0  0  0
  3 24  1  0  0  0  0
  4 14  2  0  0  0  0
  5 19  2  0  0  0  0
  6 24  2  0  0  0  0
  7  8  1  0  0  0  0
  7  9  1  0  0  0  0
  7 28  1  0  0  0  0
  8 10  1  0  0  0  0
  8 29  1  0  0  0  0
  8 30  1  0  0  0  0
  9 11  1  0  0  0  0
  9 13  2  0  0  0  0
 10 12  2  0  0  0  0
 10 31  1  0  0  0  0
 11 16  2  0  0  0  0
 11 32  1  0  0  0  0
 12 15  1  0  0  0  0
 12 18  1  0  0  0  0
 13 33  1  0  0  0  0
 14 17  1  0  0  0  0
 15 34  1  0  0  0  0
 15 35  1  0  0  0  0
 15 36  1  0  0  0  0
 16 37  1  0  0  0  0
 17 38  1  0  0  0  0
 17 39  1  0  0  0  0
 17 40  1  0  0  0  0
 18 20  3  0  0  0  0
 19 23  1  0  0  0  0
 20 22  1  0  0  0  0
 21 22  2  0  0  0  0
 21 25  1  0  0  0  0
 21 26  1  0  0  0  0
 22 41  1  0  0  0  0
 23 42  1  0  0  0  0
 23 43  1  0  0  0  0
 23 44  1  0  0  0  0
 24 27  1  0  0  0  0
 25 45  1  0  0  0  0
 25 46  1  0  0  0  0
 25 47  1  0  0  0  0
 26 48  1  0  0  0  0
 26 49  1  0  0  0  0
 26 50  1  0  0  0  0
 27 51  1  0  0  0  0
 27 52  1  0  0  0  0
 27 53  1  0  0  0  0
M  END
> <PUBCHEM_COMPOUND_CID>
5311436

> <PUBCHEM_COMPOUND_CANONICALIZED>
1

> <PUBCHEM_CACTVS_COMPLEXITY>
733

> <PUBCHEM_CACTVS_HBOND_ACCEPTOR>
6

> <PUBCHEM_CACTVS_HBOND_DONOR>
0

> <PUBCHEM_CACTVS_ROTATABLE_BOND>
11

> <PUBCHEM_CACTVS_SUBSKEYS>
AAADceB4OAAAAAAAAAAAAAAAAAAAAAAAAAAAAAAAAAAAAAAAAAAAGgAAAAAADBSggAICCAAABADIEiDSCAgACAAgIAAICAAAAAgIBAIAIQACAAAAwAAIIAIAAAAAAAAAAAAAAAAAAAAAAAAAAAAAAAAAAA==

> <PUBCHEM_IUPAC_OPENEYE_NAME>
[(1E,3Z,4S,6E)-4-acetoxy-3-(acetoxymethylene)-7,11-dimethyl-dodeca-1,6,10-trien-8-ynyl] acetate

> <PUBCHEM_IUPAC_CAS_NAME>
acetic acid [(1E,3Z,4S,6E)-4-acetyloxy-3-(acetyloxymethylidene)-7,11-dimethyldodeca-1,6,10-trien-8-ynyl] ester

> <PUBCHEM_IUPAC_NAME_MARKUP>
[(1<I>E</I>,3<I>Z</I>,4<I>S</I>,6<I>E</I>)-4-acetyloxy-3-(acetyloxymethylidene)-7,11-dimethyldodeca-1,6,10-trien-8-ynyl] acetate

> <PUBCHEM_IUPAC_NAME>
[(1E,3Z,4S,6E)-4-acetyloxy-3-(acetyloxymethylidene)-7,11-dimethyldodeca-1,6,10-trien-8-ynyl] acetate

> <PUBCHEM_IUPAC_SYSTEMATIC_NAME>
[(1E,3Z,4S,6E)-4-acetyloxy-3-(acetyloxymethylidene)-7,11-dimethyl-dodeca-1,6,10-trien-8-ynyl] ethanoate

> <PUBCHEM_IUPAC_TRADITIONAL_NAME>
acetic acid [(1E,3Z,4S,6E)-4-acetoxy-3-(acetoxymethylene)-7,11-dimethyl-dodeca-1,6,10-trien-8-ynyl] ester

> <PUBCHEM_IUPAC_INCHI>
InChI=1S/C21H26O6/c1-15(2)8-7-9-16(3)10-11-21(27-19(6)24)20(14-26-18(5)23)12-13-25-17(4)22/h8,10,12-14,21H,11H2,1-6H3/b13-12+,16-10+,20-14-/t21-/m0/s1

> <PUBCHEM_IUPAC_INCHIKEY>
INZBEAIXTUMDIW-WXBLODKZSA-N

> <PUBCHEM_XLOGP3_AA>
4.3

> <PUBCHEM_EXACT_MASS>
374.17293854

> <PUBCHEM_MOLECULAR_FORMULA>
C21H26O6

> <PUBCHEM_MOLECULAR_WEIGHT>
374.4

> <PUBCHEM_OPENEYE_CAN_SMILES>
CC(=CC#CC(=CCC(C(=COC(=O)C)C=COC(=O)C)OC(=O)C)C)C

> <PUBCHEM_OPENEYE_ISO_SMILES>
CC(=CC#C/C(=C/C[C@@H](/C(=C\OC(=O)C)/C=C/OC(=O)C)OC(=O)C)/C)C

> <PUBCHEM_CACTVS_TPSA>
78.9

> <PUBCHEM_MONOISOTOPIC_WEIGHT>
374.17293854

> <PUBCHEM_TOTAL_CHARGE>
0

> <PUBCHEM_HEAVY_ATOM_COUNT>
27

> <PUBCHEM_ATOM_DEF_STEREO_COUNT>
1

> <PUBCHEM_ATOM_UDEF_STEREO_COUNT>
0

> <PUBCHEM_BOND_DEF_STEREO_COUNT>
3

> <PUBCHEM_BOND_UDEF_STEREO_COUNT>
0

> <PUBCHEM_ISOTOPIC_ATOM_COUNT>
0

> <PUBCHEM_COMPONENT_COUNT>
1

> <PUBCHEM_CACTVS_TAUTO_COUNT>
1

> <PUBCHEM_COORDINATE_TYPE>
1
5
255

> <PUBCHEM_BONDANNOTATIONS>
7  1  5

$$$$
