2773435
  -OEChem-02212201562D

 18 19  0     0  0  0  0  0  0999 V2000
    2.0000   -0.1900    0.0000 O   0  0  0  0  0  0  0  0  0  0  0  0
    6.4103   -0.4947    0.0000 N   0  0  0  0  0  0  0  0  0  0  0  0
    5.4641   -0.1900    0.0000 C   0  0  0  0  0  0  0  0  0  0  0  0
    5.4641    0.8100    0.0000 C   0  0  0  0  0  0  0  0  0  0  0  0
    4.5981   -0.6900    0.0000 C   0  0  0  0  0  0  0  0  0  0  0  0
    6.4103    1.1147    0.0000 C   0  0  0  0  0  0  0  0  0  0  0  0
    4.5981    1.3100    0.0000 C   0  0  0  0  0  0  0  0  0  0  0  0
    3.7320   -0.1900    0.0000 C   0  0  0  0  0  0  0  0  0  0  0  0
    6.9939    0.3100    0.0000 C   0  0  0  0  0  0  0  0  0  0  0  0
    3.7320    0.8100    0.0000 C   0  0  0  0  0  0  0  0  0  0  0  0
    2.8660   -0.6900    0.0000 C   0  0  0  0  0  0  0  0  0  0  0  0
    4.5981   -1.3100    0.0000 H   0  0  0  0  0  0  0  0  0  0  0  0
    6.6029   -1.0840    0.0000 H   0  0  0  0  0  0  0  0  0  0  0  0
    6.6029    1.7040    0.0000 H   0  0  0  0  0  0  0  0  0  0  0  0
    4.5981    1.9300    0.0000 H   0  0  0  0  0  0  0  0  0  0  0  0
    7.6139    0.3100    0.0000 H   0  0  0  0  0  0  0  0  0  0  0  0
    3.1951    1.1200    0.0000 H   0  0  0  0  0  0  0  0  0  0  0  0
    2.8660   -1.3100    0.0000 H   0  0  0  0  0  0  0  0  0  0  0  0
  1 11  2  0  0  0  0
  2  3  1  0  0  0  0
  2  9  1  0  0  0  0
  2 13  1  0  0  0  0
  3  4  2  0  0  0  0
  3  5  1  0  0  0  0
  4  6  1  0  0  0  0
  4  7  1  0  0  0  0
  5  8  2  0  0  0  0
  5 12  1  0  0  0  0
  6  9  2  0  0  0  0
  6 14  1  0  0  0  0
  7 10  2  0  0  0  0
  7 15  1  0  0  0  0
  8 10  1  0  0  0  0
  8 11  1  0  0  0  0
  9 16  1  0  0  0  0
 10 17  1  0  0  0  0
 11 18  1  0  0  0  0
M  END
> <PUBCHEM_COMPOUND_CID>
2773435

> <PUBCHEM_COMPOUND_CANONICALIZED>
1

> <PUBCHEM_CACTVS_COMPLEXITY>
158

> <PUBCHEM_CACTVS_HBOND_ACCEPTOR>
1

> <PUBCHEM_CACTVS_HBOND_DONOR>
1

> <PUBCHEM_CACTVS_ROTATABLE_BOND>
1

> <PUBCHEM_CACTVS_SUBSKEYS>
AAADcYByIAAAAAAAAAAAAAAAAAAAAWAAAAAwAAAAAAAAAFgB8AAAHgAQAAAADAjhngY8wPLJkACoAzx3xACCgCA1AiAI2aE4ZNgIIPLAlZGEIQhgkADIyYcciMCOQAAAQAACAACAAACAAAQAAAAAAAAAAA==

> <PUBCHEM_IUPAC_OPENEYE_NAME>
1H-indole-6-carbaldehyde

> <PUBCHEM_IUPAC_CAS_NAME>
1H-indole-6-carboxaldehyde

> <PUBCHEM_IUPAC_NAME_MARKUP>
1<I>H</I>-indole-6-carbaldehyde

> <PUBCHEM_IUPAC_NAME>
1H-indole-6-carbaldehyde

> <PUBCHEM_IUPAC_SYSTEMATIC_NAME>
1H-indole-6-carbaldehyde

> <PUBCHEM_IUPAC_TRADITIONAL_NAME>
1H-indole-6-carbaldehyde

> <PUBCHEM_IUPAC_INCHI>
InChI=1S/C9H7NO/c11-6-7-1-2-8-3-4-10-9(8)5-7/h1-6,10H

> <PUBCHEM_IUPAC_INCHIKEY>
VSPBWOAEHQDXRD-UHFFFAOYSA-N

> <PUBCHEM_XLOGP3>
2.1

> <PUBCHEM_EXACT_MASS>
145.052763847

> <PUBCHEM_MOLECULAR_FORMULA>
C9H7NO

> <PUBCHEM_MOLECULAR_WEIGHT>
145.16

> <PUBCHEM_OPENEYE_CAN_SMILES>
C1=CC(=CC2=C1C=CN2)C=O

> <PUBCHEM_OPENEYE_ISO_SMILES>
C1=CC(=CC2=C1C=CN2)C=O

> <PUBCHEM_CACTVS_TPSA>
32.9

> <PUBCHEM_MONOISOTOPIC_WEIGHT>
145.052763847

> <PUBCHEM_TOTAL_CHARGE>
0

> <PUBCHEM_HEAVY_ATOM_COUNT>
11

> <PUBCHEM_ATOM_DEF_STEREO_COUNT>
0

> <PUBCHEM_ATOM_UDEF_STEREO_COUNT>
0

> <PUBCHEM_BOND_DEF_STEREO_COUNT>
0

> <PUBCHEM_BOND_UDEF_STEREO_COUNT>
0

> <PUBCHEM_ISOTOPIC_ATOM_COUNT>
0

> <PUBCHEM_COMPONENT_COUNT>
1

> <PUBCHEM_CACTVS_TAUTO_COUNT>
-1

> <PUBCHEM_COORDINATE_TYPE>
1
5
255

> <PUBCHEM_BONDANNOTATIONS>
2  3  8
2  9  8
3  4  8
3  5  8
4  6  8
4  7  8
5  8  8
6  9  8
7  10  8
8  10  8

$$$$
