9868539
  -OEChem-02212200072D

 79 79  0     1  0  0  0  0  0999 V2000
   11.3652   -0.2295    0.0000 O   0  0  0  0  0  0  0  0  0  0  0  0
   13.7453    1.9259    0.0000 O   0  0  0  0  0  0  0  0  0  0  0  0
    9.6581   -0.9366    0.0000 O   0  0  0  0  0  0  0  0  0  0  0  0
   14.9700    0.7012    0.0000 O   0  0  0  0  0  0  0  0  0  0  0  0
   18.0573    2.5637    0.0000 O   0  0  0  0  0  0  0  0  0  0  0  0
   16.3843    2.1154    0.0000 N   0  0  0  0  0  0  0  0  0  0  0  0
   10.3652    0.7705    0.0000 C   0  0  2  0  0  0  0  0  0  0  0  0
   11.3652    0.7705    0.0000 C   0  0  2  0  0  0  0  0  0  0  0  0
   12.0723    1.4776    0.0000 C   0  0  0  0  0  0  0  0  0  0  0  0
    9.6581    1.4776    0.0000 C   0  0  0  0  0  0  0  0  0  0  0  0
   13.0382    1.2188    0.0000 C   0  0  2  0  0  0  0  0  0  0  0  0
   10.3652   -0.2295    0.0000 C   0  0  0  0  0  0  0  0  0  0  0  0
    8.6921    1.2188    0.0000 C   0  0  0  0  0  0  0  0  0  0  0  0
   13.2970    0.2529    0.0000 C   0  0  0  0  0  0  0  0  0  0  0  0
    7.9850    1.9259    0.0000 C   0  0  0  0  0  0  0  0  0  0  0  0
   14.2629   -0.0059    0.0000 C   0  0  0  0  0  0  0  0  0  0  0  0
    7.0191    1.6671    0.0000 C   0  0  0  0  0  0  0  0  0  0  0  0
   14.5218   -0.9719    0.0000 C   0  0  0  0  0  0  0  0  0  0  0  0
    6.3120    2.3742    0.0000 C   0  0  0  0  0  0  0  0  0  0  0  0
   15.4877   -1.2307    0.0000 C   0  0  0  0  0  0  0  0  0  0  0  0
    5.3461    2.1154    0.0000 C   0  0  0  0  0  0  0  0  0  0  0  0
   14.7112    1.6671    0.0000 C   0  0  0  0  0  0  0  0  0  0  0  0
    4.6390    2.8225    0.0000 C   0  0  0  0  0  0  0  0  0  0  0  0
   15.7465   -2.1966    0.0000 C   0  0  0  0  0  0  0  0  0  0  0  0
   15.4183    2.3742    0.0000 C   0  0  2  0  0  0  0  0  0  0  0  0
    3.6730    2.5637    0.0000 C   0  0  0  0  0  0  0  0  0  0  0  0
   16.7124   -2.4554    0.0000 C   0  0  0  0  0  0  0  0  0  0  0  0
    2.9659    3.2708    0.0000 C   0  0  0  0  0  0  0  0  0  0  0  0
   15.1595    3.3401    0.0000 C   0  0  0  0  0  0  0  0  0  0  0  0
   16.9712   -3.4214    0.0000 C   0  0  0  0  0  0  0  0  0  0  0  0
    2.0000    3.0120    0.0000 C   0  0  0  0  0  0  0  0  0  0  0  0
   17.0914    2.8225    0.0000 C   0  0  0  0  0  0  0  0  0  0  0  0
    9.7924    0.5333    0.0000 H   0  0  0  0  0  0  0  0  0  0  0  0
   11.9380    0.5333    0.0000 H   0  0  0  0  0  0  0  0  0  0  0  0
   12.3343    2.0395    0.0000 H   0  0  0  0  0  0  0  0  0  0  0  0
   11.5644    1.8332    0.0000 H   0  0  0  0  0  0  0  0  0  0  0  0
   10.1659    1.8332    0.0000 H   0  0  0  0  0  0  0  0  0  0  0  0
    9.3960    2.0395    0.0000 H   0  0  0  0  0  0  0  0  0  0  0  0
   13.6371    1.0583    0.0000 H   0  0  0  0  0  0  0  0  0  0  0  0
    8.1843    0.8632    0.0000 H   0  0  0  0  0  0  0  0  0  0  0  0
    8.9542    0.6569    0.0000 H   0  0  0  0  0  0  0  0  0  0  0  0
   12.6794    0.1988    0.0000 H   0  0  0  0  0  0  0  0  0  0  0  0
   13.2430   -0.3648    0.0000 H   0  0  0  0  0  0  0  0  0  0  0  0
    8.4929    2.2815    0.0000 H   0  0  0  0  0  0  0  0  0  0  0  0
    7.7230    2.4878    0.0000 H   0  0  0  0  0  0  0  0  0  0  0  0
   14.8806    0.0481    0.0000 H   0  0  0  0  0  0  0  0  0  0  0  0
   14.3170    0.6117    0.0000 H   0  0  0  0  0  0  0  0  0  0  0  0
    6.5112    1.3115    0.0000 H   0  0  0  0  0  0  0  0  0  0  0  0
    7.2811    1.1052    0.0000 H   0  0  0  0  0  0  0  0  0  0  0  0
   13.9041   -1.0259    0.0000 H   0  0  0  0  0  0  0  0  0  0  0  0
   14.4677   -1.5895    0.0000 H   0  0  0  0  0  0  0  0  0  0  0  0
    6.8199    2.7298    0.0000 H   0  0  0  0  0  0  0  0  0  0  0  0
    6.0500    2.9361    0.0000 H   0  0  0  0  0  0  0  0  0  0  0  0
   16.1053   -1.1766    0.0000 H   0  0  0  0  0  0  0  0  0  0  0  0
   15.5417   -0.6130    0.0000 H   0  0  0  0  0  0  0  0  0  0  0  0
    4.8382    1.7598    0.0000 H   0  0  0  0  0  0  0  0  0  0  0  0
    5.6081    1.5535    0.0000 H   0  0  0  0  0  0  0  0  0  0  0  0
    5.1468    3.1781    0.0000 H   0  0  0  0  0  0  0  0  0  0  0  0
    4.3769    3.3844    0.0000 H   0  0  0  0  0  0  0  0  0  0  0  0
   15.1289   -2.2506    0.0000 H   0  0  0  0  0  0  0  0  0  0  0  0
   15.6925   -2.8142    0.0000 H   0  0  0  0  0  0  0  0  0  0  0  0
   15.5788    1.7753    0.0000 H   0  0  0  0  0  0  0  0  0  0  0  0
    3.1652    2.2080    0.0000 H   0  0  0  0  0  0  0  0  0  0  0  0
    3.9351    2.0018    0.0000 H   0  0  0  0  0  0  0  0  0  0  0  0
   17.3301   -2.4014    0.0000 H   0  0  0  0  0  0  0  0  0  0  0  0
   16.7665   -1.8378    0.0000 H   0  0  0  0  0  0  0  0  0  0  0  0
    3.4738    3.6264    0.0000 H   0  0  0  0  0  0  0  0  0  0  0  0
    2.7039    3.8327    0.0000 H   0  0  0  0  0  0  0  0  0  0  0  0
   15.7584    3.5006    0.0000 H   0  0  0  0  0  0  0  0  0  0  0  0
   14.9990    3.9390    0.0000 H   0  0  0  0  0  0  0  0  0  0  0  0
   14.5606    3.1796    0.0000 H   0  0  0  0  0  0  0  0  0  0  0  0
   16.3724   -3.5818    0.0000 H   0  0  0  0  0  0  0  0  0  0  0  0
   17.1317   -4.0202    0.0000 H   0  0  0  0  0  0  0  0  0  0  0  0
   17.5701   -3.2609    0.0000 H   0  0  0  0  0  0  0  0  0  0  0  0
   16.5447    1.5165    0.0000 H   0  0  0  0  0  0  0  0  0  0  0  0
    1.8395    3.6108    0.0000 H   0  0  0  0  0  0  0  0  0  0  0  0
    1.4011    2.8515    0.0000 H   0  0  0  0  0  0  0  0  0  0  0  0
    2.1605    2.4131    0.0000 H   0  0  0  0  0  0  0  0  0  0  0  0
   16.9309    3.4214    0.0000 H   0  0  0  0  0  0  0  0  0  0  0  0
  1  8  1  0  0  0  0
  1 12  1  0  0  0  0
 11  2  1  1  0  0  0
  2 22  1  0  0  0  0
  3 12  2  0  0  0  0
  4 22  2  0  0  0  0
  5 32  2  0  0  0  0
 25  6  1  6  0  0  0
  6 32  1  0  0  0  0
  6 75  1  0  0  0  0
  7  8  1  0  0  0  0
  7 10  1  1  0  0  0
  7 12  1  0  0  0  0
  7 33  1  0  0  0  0
  8  9  1  6  0  0  0
  8 34  1  0  0  0  0
  9 11  1  0  0  0  0
  9 35  1  0  0  0  0
  9 36  1  0  0  0  0
 10 13  1  0  0  0  0
 10 37  1  0  0  0  0
 10 38  1  0  0  0  0
 11 14  1  0  0  0  0
 11 39  1  0  0  0  0
 13 15  1  0  0  0  0
 13 40  1  0  0  0  0
 13 41  1  0  0  0  0
 14 16  1  0  0  0  0
 14 42  1  0  0  0  0
 14 43  1  0  0  0  0
 15 17  1  0  0  0  0
 15 44  1  0  0  0  0
 15 45  1  0  0  0  0
 16 18  1  0  0  0  0
 16 46  1  0  0  0  0
 16 47  1  0  0  0  0
 17 19  1  0  0  0  0
 17 48  1  0  0  0  0
 17 49  1  0  0  0  0
 18 20  1  0  0  0  0
 18 50  1  0  0  0  0
 18 51  1  0  0  0  0
 19 21  1  0  0  0  0
 19 52  1  0  0  0  0
 19 53  1  0  0  0  0
 20 24  1  0  0  0  0
 20 54  1  0  0  0  0
 20 55  1  0  0  0  0
 21 23  1  0  0  0  0
 21 56  1  0  0  0  0
 21 57  1  0  0  0  0
 22 25  1  0  0  0  0
 23 26  1  0  0  0  0
 23 58  1  0  0  0  0
 23 59  1  0  0  0  0
 24 27  1  0  0  0  0
 24 60  1  0  0  0  0
 24 61  1  0  0  0  0
 25 29  1  0  0  0  0
 25 62  1  0  0  0  0
 26 28  1  0  0  0  0
 26 63  1  0  0  0  0
 26 64  1  0  0  0  0
 27 30  1  0  0  0  0
 27 65  1  0  0  0  0
 27 66  1  0  0  0  0
 28 31  1  0  0  0  0
 28 67  1  0  0  0  0
 28 68  1  0  0  0  0
 29 69  1  0  0  0  0
 29 70  1  0  0  0  0
 29 71  1  0  0  0  0
 30 72  1  0  0  0  0
 30 73  1  0  0  0  0
 30 74  1  0  0  0  0
 31 76  1  0  0  0  0
 31 77  1  0  0  0  0
 31 78  1  0  0  0  0
 32 79  1  0  0  0  0
M  END
> <PUBCHEM_COMPOUND_CID>
9868539

> <PUBCHEM_COMPOUND_CANONICALIZED>
1

> <PUBCHEM_CACTVS_COMPLEXITY>
524

> <PUBCHEM_CACTVS_HBOND_ACCEPTOR>
5

> <PUBCHEM_CACTVS_HBOND_DONOR>
1

> <PUBCHEM_CACTVS_ROTATABLE_BOND>
21

> <PUBCHEM_CACTVS_SUBSKEYS>
AAADcfB6OAAAAAAAAAAAAAAAAABIAAAAAAAAAAAAAAAAAAAAAAAAHgAQAAAADTzhgAYCCALABAAIAACQmAAAAAAAAAAAAIGIAAACABYAACADAAAFNgAQAAGI7OzOAAAAAAAAAAAAAAAAAAAAAAAAAAAAAA==

> <PUBCHEM_IUPAC_OPENEYE_NAME>
[(1S)-1-[[(2S,3S)-3-decyl-4-oxo-oxetan-2-yl]methyl]octyl] (2S)-2-formamidopropanoate

> <PUBCHEM_IUPAC_CAS_NAME>
(2S)-2-formamidopropanoic acid [(2S)-1-[(2S,3S)-3-decyl-4-oxo-2-oxetanyl]nonan-2-yl] ester

> <PUBCHEM_IUPAC_NAME_MARKUP>
[(2<I>S</I>)-1-[(2<I>S</I>,3<I>S</I>)-3-decyl-4-oxooxetan-2-yl]nonan-2-yl] (2<I>S</I>)-2-formamidopropanoate

> <PUBCHEM_IUPAC_NAME>
[(2S)-1-[(2S,3S)-3-decyl-4-oxooxetan-2-yl]nonan-2-yl] (2S)-2-formamidopropanoate

> <PUBCHEM_IUPAC_SYSTEMATIC_NAME>
[(2S)-1-[(2S,3S)-3-decyl-4-oxidanylidene-oxetan-2-yl]nonan-2-yl] (2S)-2-formamidopropanoate

> <PUBCHEM_IUPAC_TRADITIONAL_NAME>
(2S)-2-formamidopropionic acid [(1S)-1-[[(2S,3S)-3-decyl-4-keto-oxetan-2-yl]methyl]octyl] ester

> <PUBCHEM_IUPAC_INCHI>
InChI=1S/C26H47NO5/c1-4-6-8-10-11-12-14-16-18-23-24(32-26(23)30)19-22(17-15-13-9-7-5-2)31-25(29)21(3)27-20-28/h20-24H,4-19H2,1-3H3,(H,27,28)/t21-,22-,23-,24-/m0/s1

> <PUBCHEM_IUPAC_INCHIKEY>
WKCHBWPPSCZGSC-ZJZGAYNASA-N

> <PUBCHEM_XLOGP3_AA>
8.6

> <PUBCHEM_EXACT_MASS>
453.34542360

> <PUBCHEM_MOLECULAR_FORMULA>
C26H47NO5

> <PUBCHEM_MOLECULAR_WEIGHT>
453.7

> <PUBCHEM_OPENEYE_CAN_SMILES>
CCCCCCCCCCC1C(OC1=O)CC(CCCCCCC)OC(=O)C(C)NC=O

> <PUBCHEM_OPENEYE_ISO_SMILES>
CCCCCCCCCC[C@H]1[C@@H](OC1=O)C[C@H](CCCCCCC)OC(=O)[C@H](C)NC=O

> <PUBCHEM_CACTVS_TPSA>
81.7

> <PUBCHEM_MONOISOTOPIC_WEIGHT>
453.34542360

> <PUBCHEM_TOTAL_CHARGE>
0

> <PUBCHEM_HEAVY_ATOM_COUNT>
32

> <PUBCHEM_ATOM_DEF_STEREO_COUNT>
4

> <PUBCHEM_ATOM_UDEF_STEREO_COUNT>
0

> <PUBCHEM_BOND_DEF_STEREO_COUNT>
0

> <PUBCHEM_BOND_UDEF_STEREO_COUNT>
0

> <PUBCHEM_ISOTOPIC_ATOM_COUNT>
0

> <PUBCHEM_COMPONENT_COUNT>
1

> <PUBCHEM_CACTVS_TAUTO_COUNT>
-1

> <PUBCHEM_COORDINATE_TYPE>
1
5
255

> <PUBCHEM_BONDANNOTATIONS>
11  2  5
25  6  6
7  10  5
8  9  6

$$$$
