9929901
  -OEChem-02212201032D

 66 67  0     1  0  0  0  0  0999 V2000
    6.0682   -3.0981    0.0000 O   0  0  0  0  0  0  0  0  0  0  0  0
    2.5381   -1.0739    0.0000 O   0  0  0  0  0  0  0  0  0  0  0  0
    6.9343   -2.5981    0.0000 C   0  0  3  0  0  0  0  0  0  0  0  0
    6.9343   -1.5981    0.0000 C   0  0  0  0  0  0  0  0  0  0  0  0
    7.9343   -2.5981    0.0000 C   0  0  0  0  0  0  0  0  0  0  0  0
    6.0682   -1.0981    0.0000 C   0  0  0  0  0  0  0  0  0  0  0  0
    7.4343   -3.4641    0.0000 C   0  0  0  0  0  0  0  0  0  0  0  0
    5.2022   -1.5981    0.0000 C   0  0  0  0  0  0  0  0  0  0  0  0
    8.4343   -1.7320    0.0000 C   0  0  0  0  0  0  0  0  0  0  0  0
    5.2022   -2.5981    0.0000 C   0  0  0  0  0  0  0  0  0  0  0  0
    9.4343   -1.7320    0.0000 C   0  0  0  0  0  0  0  0  0  0  0  0
    4.3083   -1.0634    0.0000 C   0  0  0  0  0  0  0  0  0  0  0  0
    4.3083   -3.1327    0.0000 C   0  0  0  0  0  0  0  0  0  0  0  0
    9.9343   -0.8660    0.0000 C   0  0  0  0  0  0  0  0  0  0  0  0
    3.4022   -1.5773    0.0000 C   0  0  0  0  0  0  0  0  0  0  0  0
    3.4022   -2.6189    0.0000 C   0  0  0  0  0  0  0  0  0  0  0  0
   10.9343   -0.8660    0.0000 C   0  0  0  0  0  0  0  0  0  0  0  0
   11.4343    0.0000    0.0000 C   0  0  0  0  0  0  0  0  0  0  0  0
    9.4343   -0.0000    0.0000 C   0  0  0  0  0  0  0  0  0  0  0  0
   12.4343    0.0000    0.0000 C   0  0  0  0  0  0  0  0  0  0  0  0
   12.9343    0.8660    0.0000 C   0  0  0  0  0  0  0  0  0  0  0  0
   13.9343    0.8660    0.0000 C   0  0  0  0  0  0  0  0  0  0  0  0
   14.4343    1.7320    0.0000 C   0  0  0  0  0  0  0  0  0  0  0  0
   12.4343    1.7320    0.0000 C   0  0  0  0  0  0  0  0  0  0  0  0
   15.4343    1.7320    0.0000 C   0  0  0  0  0  0  0  0  0  0  0  0
   15.9343    2.5981    0.0000 C   0  0  0  0  0  0  0  0  0  0  0  0
   16.9343    2.5981    0.0000 C   0  0  0  0  0  0  0  0  0  0  0  0
   15.4343    3.4641    0.0000 C   0  0  0  0  0  0  0  0  0  0  0  0
    7.5449   -1.7057    0.0000 H   0  0  0  0  0  0  0  0  0  0  0  0
    7.1463   -1.0155    0.0000 H   0  0  0  0  0  0  0  0  0  0  0  0
    7.8266   -3.2087    0.0000 H   0  0  0  0  0  0  0  0  0  0  0  0
    8.5169   -2.8101    0.0000 H   0  0  0  0  0  0  0  0  0  0  0  0
    6.4668   -0.6231    0.0000 H   0  0  0  0  0  0  0  0  0  0  0  0
    5.6697   -0.6231    0.0000 H   0  0  0  0  0  0  0  0  0  0  0  0
    6.8973   -3.7741    0.0000 H   0  0  0  0  0  0  0  0  0  0  0  0
    7.7443   -4.0010    0.0000 H   0  0  0  0  0  0  0  0  0  0  0  0
    7.9712   -3.1541    0.0000 H   0  0  0  0  0  0  0  0  0  0  0  0
    8.5419   -1.1215    0.0000 H   0  0  0  0  0  0  0  0  0  0  0  0
    7.8517   -1.5200    0.0000 H   0  0  0  0  0  0  0  0  0  0  0  0
    9.7443   -2.2690    0.0000 H   0  0  0  0  0  0  0  0  0  0  0  0
    4.3154   -0.4435    0.0000 H   0  0  0  0  0  0  0  0  0  0  0  0
    4.3154   -3.7527    0.0000 H   0  0  0  0  0  0  0  0  0  0  0  0
    2.8665   -2.9310    0.0000 H   0  0  0  0  0  0  0  0  0  0  0  0
   10.8266   -1.4766    0.0000 H   0  0  0  0  0  0  0  0  0  0  0  0
   11.5169   -1.0781    0.0000 H   0  0  0  0  0  0  0  0  0  0  0  0
   11.5419    0.6106    0.0000 H   0  0  0  0  0  0  0  0  0  0  0  0
   10.8517    0.2121    0.0000 H   0  0  0  0  0  0  0  0  0  0  0  0
    9.9712    0.3100    0.0000 H   0  0  0  0  0  0  0  0  0  0  0  0
    9.1243    0.5369    0.0000 H   0  0  0  0  0  0  0  0  0  0  0  0
    8.8973   -0.3100    0.0000 H   0  0  0  0  0  0  0  0  0  0  0  0
   12.7443   -0.5369    0.0000 H   0  0  0  0  0  0  0  0  0  0  0  0
    2.0000   -1.3818    0.0000 H   0  0  0  0  0  0  0  0  0  0  0  0
   13.8266    0.2554    0.0000 H   0  0  0  0  0  0  0  0  0  0  0  0
   14.5169    0.6540    0.0000 H   0  0  0  0  0  0  0  0  0  0  0  0
   14.5419    2.3426    0.0000 H   0  0  0  0  0  0  0  0  0  0  0  0
   13.8517    1.9441    0.0000 H   0  0  0  0  0  0  0  0  0  0  0  0
   12.9712    2.0420    0.0000 H   0  0  0  0  0  0  0  0  0  0  0  0
   12.1243    2.2690    0.0000 H   0  0  0  0  0  0  0  0  0  0  0  0
   11.8973    1.4220    0.0000 H   0  0  0  0  0  0  0  0  0  0  0  0
   15.7443    1.1951    0.0000 H   0  0  0  0  0  0  0  0  0  0  0  0
   16.9343    1.9781    0.0000 H   0  0  0  0  0  0  0  0  0  0  0  0
   17.5543    2.5981    0.0000 H   0  0  0  0  0  0  0  0  0  0  0  0
   16.9343    3.2181    0.0000 H   0  0  0  0  0  0  0  0  0  0  0  0
   15.9712    3.7741    0.0000 H   0  0  0  0  0  0  0  0  0  0  0  0
   15.1243    4.0010    0.0000 H   0  0  0  0  0  0  0  0  0  0  0  0
   14.8973    3.1541    0.0000 H   0  0  0  0  0  0  0  0  0  0  0  0
  1  3  1  0  0  0  0
  1 10  1  0  0  0  0
  2 15  1  0  0  0  0
  2 52  1  0  0  0  0
  3  4  1  0  0  0  0
  3  5  1  0  0  0  0
  3  7  1  0  0  0  0
  4  6  1  0  0  0  0
  4 29  1  0  0  0  0
  4 30  1  0  0  0  0
  5  9  1  0  0  0  0
  5 31  1  0  0  0  0
  5 32  1  0  0  0  0
  6  8  1  0  0  0  0
  6 33  1  0  0  0  0
  6 34  1  0  0  0  0
  7 35  1  0  0  0  0
  7 36  1  0  0  0  0
  7 37  1  0  0  0  0
  8 10  2  0  0  0  0
  8 12  1  0  0  0  0
  9 11  1  0  0  0  0
  9 38  1  0  0  0  0
  9 39  1  0  0  0  0
 10 13  1  0  0  0  0
 11 14  2  0  0  0  0
 11 40  1  0  0  0  0
 12 15  2  0  0  0  0
 12 41  1  0  0  0  0
 13 16  2  0  0  0  0
 13 42  1  0  0  0  0
 14 17  1  0  0  0  0
 14 19  1  0  0  0  0
 15 16  1  0  0  0  0
 16 43  1  0  0  0  0
 17 18  1  0  0  0  0
 17 44  1  0  0  0  0
 17 45  1  0  0  0  0
 18 20  1  0  0  0  0
 18 46  1  0  0  0  0
 18 47  1  0  0  0  0
 19 48  1  0  0  0  0
 19 49  1  0  0  0  0
 19 50  1  0  0  0  0
 20 21  2  0  0  0  0
 20 51  1  0  0  0  0
 21 22  1  0  0  0  0
 21 24  1  0  0  0  0
 22 23  1  0  0  0  0
 22 53  1  0  0  0  0
 22 54  1  0  0  0  0
 23 25  1  0  0  0  0
 23 55  1  0  0  0  0
 23 56  1  0  0  0  0
 24 57  1  0  0  0  0
 24 58  1  0  0  0  0
 24 59  1  0  0  0  0
 25 26  2  0  0  0  0
 25 60  1  0  0  0  0
 26 27  1  0  0  0  0
 26 28  1  0  0  0  0
 27 61  1  0  0  0  0
 27 62  1  0  0  0  0
 27 63  1  0  0  0  0
 28 64  1  0  0  0  0
 28 65  1  0  0  0  0
 28 66  1  0  0  0  0
M  END
> <PUBCHEM_COMPOUND_CID>
9929901

> <PUBCHEM_COMPOUND_CANONICALIZED>
1

> <PUBCHEM_CACTVS_COMPLEXITY>
567

> <PUBCHEM_CACTVS_HBOND_ACCEPTOR>
2

> <PUBCHEM_CACTVS_HBOND_DONOR>
1

> <PUBCHEM_CACTVS_ROTATABLE_BOND>
9

> <PUBCHEM_CACTVS_SUBSKEYS>
AAADcfB4MAAAAAAAAAAAAAAAAAAAAAAAAAA0QAAAAAAAAACRAAAAGgAACAAADESAmAAyBoAABgCAAiBCAAACCAAgIAAIiAAGCIgMJiKGMRqCeCCkwBEIuAfAwPAOAQABAAAIAAACAAIAABAAAAAAAAAAAA==

> <PUBCHEM_IUPAC_OPENEYE_NAME>
2-methyl-2-[(3E,7E)-4,8,12-trimethyltrideca-3,7,11-trienyl]chroman-6-ol

> <PUBCHEM_IUPAC_CAS_NAME>
2-methyl-2-[(3E,7E)-4,8,12-trimethyltrideca-3,7,11-trienyl]-3,4-dihydro-2H-1-benzopyran-6-ol

> <PUBCHEM_IUPAC_NAME_MARKUP>
2-methyl-2-[(3<I>E</I>,7<I>E</I>)-4,8,12-trimethyltrideca-3,7,11-trienyl]-3,4-dihydrochromen-6-ol

> <PUBCHEM_IUPAC_NAME>
2-methyl-2-[(3E,7E)-4,8,12-trimethyltrideca-3,7,11-trienyl]-3,4-dihydrochromen-6-ol

> <PUBCHEM_IUPAC_SYSTEMATIC_NAME>
2-methyl-2-[(3E,7E)-4,8,12-trimethyltrideca-3,7,11-trienyl]-3,4-dihydrochromen-6-ol

> <PUBCHEM_IUPAC_TRADITIONAL_NAME>
2-methyl-2-[(3E,7E)-4,8,12-trimethyltrideca-3,7,11-trienyl]chroman-6-ol

> <PUBCHEM_IUPAC_INCHI>
InChI=1S/C26H38O2/c1-20(2)9-6-10-21(3)11-7-12-22(4)13-8-17-26(5)18-16-23-19-24(27)14-15-25(23)28-26/h9,11,13-15,19,27H,6-8,10,12,16-18H2,1-5H3/b21-11+,22-13+

> <PUBCHEM_IUPAC_INCHIKEY>
GJJVAFUKOBZPCB-ZGRPYONQSA-N

> <PUBCHEM_XLOGP3_AA>
8.2

> <PUBCHEM_EXACT_MASS>
382.287180451

> <PUBCHEM_MOLECULAR_FORMULA>
C26H38O2

> <PUBCHEM_MOLECULAR_WEIGHT>
382.6

> <PUBCHEM_OPENEYE_CAN_SMILES>
CC(=CCCC(=CCCC(=CCCC1(CCC2=C(O1)C=CC(=C2)O)C)C)C)C

> <PUBCHEM_OPENEYE_ISO_SMILES>
CC(=CCC/C(=C/CC/C(=C/CCC1(CCC2=C(O1)C=CC(=C2)O)C)/C)/C)C

> <PUBCHEM_CACTVS_TPSA>
29.5

> <PUBCHEM_MONOISOTOPIC_WEIGHT>
382.287180451

> <PUBCHEM_TOTAL_CHARGE>
0

> <PUBCHEM_HEAVY_ATOM_COUNT>
28

> <PUBCHEM_ATOM_DEF_STEREO_COUNT>
0

> <PUBCHEM_ATOM_UDEF_STEREO_COUNT>
1

> <PUBCHEM_BOND_DEF_STEREO_COUNT>
2

> <PUBCHEM_BOND_UDEF_STEREO_COUNT>
0

> <PUBCHEM_ISOTOPIC_ATOM_COUNT>
0

> <PUBCHEM_COMPONENT_COUNT>
1

> <PUBCHEM_CACTVS_TAUTO_COUNT>
6

> <PUBCHEM_COORDINATE_TYPE>
1
5
255

> <PUBCHEM_BONDANNOTATIONS>
10  13  8
12  15  8
13  16  8
15  16  8
3  7  3
8  10  8
8  12  8

$$$$
