16061220
  -OEChem-02212202032D

 99100  0     1  0  0  0  0  0999 V2000
    2.3100   -7.3940    0.0000 O   0  0  0  0  0  0  0  0  0  0  0  0
    4.1760   -9.8940    0.0000 O   0  0  0  0  0  0  0  0  0  0  0  0
   11.9703    6.6060    0.0000 O   0  0  0  0  0  0  0  0  0  0  0  0
   13.4703   10.2040    0.0000 O   0  0  0  0  0  0  0  0  0  0  0  0
   11.9703    5.6060    0.0000 O   0  0  0  0  0  0  0  0  0  0  0  0
    5.0420   -7.3940    0.0000 C   0  0  0  0  0  0  0  0  0  0  0  0
    3.3100   -7.3940    0.0000 C   0  0  2  0  0  0  0  0  0  0  0  0
    5.0420   -8.3940    0.0000 C   0  0  0  0  0  0  0  0  0  0  0  0
   11.4703    8.4720    0.0000 C   0  0  0  0  0  0  0  0  0  0  0  0
    4.1760   -8.8940    0.0000 C   0  0  1  0  0  0  0  0  0  0  0  0
    3.3100   -8.3940    0.0000 C   0  0  0  0  0  0  0  0  0  0  0  0
    4.1760   -6.8940    0.0000 C   0  0  0  0  0  0  0  0  0  0  0  0
   11.9703    7.6060    0.0000 C   0  0  1  0  0  0  0  0  0  0  0  0
   11.9703    9.3380    0.0000 C   0  0  0  0  0  0  0  0  0  0  0  0
    6.0420   -7.3940    0.0000 C   0  0  0  0  0  0  0  0  0  0  0  0
    5.5420   -6.5280    0.0000 C   0  0  0  0  0  0  0  0  0  0  0  0
   12.9703    7.6060    0.0000 C   0  0  0  0  0  0  0  0  0  0  0  0
   11.1042    7.1060    0.0000 C   0  0  0  0  0  0  0  0  0  0  0  0
    2.8100   -6.5280    0.0000 C   0  0  0  0  0  0  0  0  0  0  0  0
   10.6042    8.9720    0.0000 C   0  0  0  0  0  0  0  0  0  0  0  0
   10.6042    7.9720    0.0000 C   0  0  0  0  0  0  0  0  0  0  0  0
   12.9703    9.3380    0.0000 C   0  0  0  0  0  0  0  0  0  0  0  0
   13.4703    8.4720    0.0000 C   0  0  0  0  0  0  0  0  0  0  0  0
    4.1760   -5.8940    0.0000 C   0  0  0  0  0  0  0  0  0  0  0  0
   13.4703    6.7399    0.0000 C   0  0  0  0  0  0  0  0  0  0  0  0
   11.1042    6.1060    0.0000 C   0  0  0  0  0  0  0  0  0  0  0  0
    4.1760   -4.8940    0.0000 C   0  0  0  0  0  0  0  0  0  0  0  0
   10.2382    5.6060    0.0000 C   0  0  0  0  0  0  0  0  0  0  0  0
    5.0420   -4.3940    0.0000 C   0  0  0  0  0  0  0  0  0  0  0  0
    9.3722    6.1060    0.0000 C   0  0  0  0  0  0  0  0  0  0  0  0
   10.2382    4.6060    0.0000 C   0  0  0  0  0  0  0  0  0  0  0  0
    5.9081   -4.8940    0.0000 C   0  0  0  0  0  0  0  0  0  0  0  0
    5.0420   -3.3940    0.0000 C   0  0  0  0  0  0  0  0  0  0  0  0
    9.3722    4.1060    0.0000 C   0  0  0  0  0  0  0  0  0  0  0  0
    5.9081   -2.8940    0.0000 C   0  0  0  0  0  0  0  0  0  0  0  0
    9.3722    3.1060    0.0000 C   0  0  0  0  0  0  0  0  0  0  0  0
    5.9081   -1.8940    0.0000 C   0  0  0  0  0  0  0  0  0  0  0  0
    8.5062    2.6060    0.0000 C   0  0  0  0  0  0  0  0  0  0  0  0
    6.7741   -1.3940    0.0000 C   0  0  0  0  0  0  0  0  0  0  0  0
    7.6401    3.1060    0.0000 C   0  0  0  0  0  0  0  0  0  0  0  0
    8.5062    1.6060    0.0000 C   0  0  0  0  0  0  0  0  0  0  0  0
    6.7741   -0.3940    0.0000 C   0  0  0  0  0  0  0  0  0  0  0  0
    7.6401   -1.8940    0.0000 C   0  0  0  0  0  0  0  0  0  0  0  0
    7.6401    1.1060    0.0000 C   0  0  0  0  0  0  0  0  0  0  0  0
    7.6401    0.1060    0.0000 C   0  0  0  0  0  0  0  0  0  0  0  0
    5.2541   -8.9766    0.0000 H   0  0  0  0  0  0  0  0  0  0  0  0
    5.6526   -8.2864    0.0000 H   0  0  0  0  0  0  0  0  0  0  0  0
    4.7130   -9.2040    0.0000 H   0  0  0  0  0  0  0  0  0  0  0  0
    2.6994   -8.2864    0.0000 H   0  0  0  0  0  0  0  0  0  0  0  0
    3.0980   -8.9766    0.0000 H   0  0  0  0  0  0  0  0  0  0  0  0
   12.0779    9.9486    0.0000 H   0  0  0  0  0  0  0  0  0  0  0  0
   11.3876    9.5501    0.0000 H   0  0  0  0  0  0  0  0  0  0  0  0
    6.0420   -8.0140    0.0000 H   0  0  0  0  0  0  0  0  0  0  0  0
    6.6620   -7.3940    0.0000 H   0  0  0  0  0  0  0  0  0  0  0  0
    6.0420   -6.7740    0.0000 H   0  0  0  0  0  0  0  0  0  0  0  0
    6.0790   -6.8380    0.0000 H   0  0  0  0  0  0  0  0  0  0  0  0
    5.8520   -5.9911    0.0000 H   0  0  0  0  0  0  0  0  0  0  0  0
    5.0051   -6.2180    0.0000 H   0  0  0  0  0  0  0  0  0  0  0  0
   10.8922    7.6886    0.0000 H   0  0  0  0  0  0  0  0  0  0  0  0
   10.4936    6.9983    0.0000 H   0  0  0  0  0  0  0  0  0  0  0  0
    3.3469   -6.2180    0.0000 H   0  0  0  0  0  0  0  0  0  0  0  0
    2.5000   -5.9911    0.0000 H   0  0  0  0  0  0  0  0  0  0  0  0
    2.2731   -6.8380    0.0000 H   0  0  0  0  0  0  0  0  0  0  0  0
   10.9142    9.5089    0.0000 H   0  0  0  0  0  0  0  0  0  0  0  0
   10.0673    9.2820    0.0000 H   0  0  0  0  0  0  0  0  0  0  0  0
   10.2942    8.4350    0.0000 H   0  0  0  0  0  0  0  0  0  0  0  0
   10.2942    8.5089    0.0000 H   0  0  0  0  0  0  0  0  0  0  0  0
   10.0673    7.6620    0.0000 H   0  0  0  0  0  0  0  0  0  0  0  0
   10.9142    7.4350    0.0000 H   0  0  0  0  0  0  0  0  0  0  0  0
   14.0903    8.4720    0.0000 H   0  0  0  0  0  0  0  0  0  0  0  0
    2.0000   -7.9310    0.0000 H   0  0  0  0  0  0  0  0  0  0  0  0
    4.7130  -10.2040    0.0000 H   0  0  0  0  0  0  0  0  0  0  0  0
   12.5072    6.2960    0.0000 H   0  0  0  0  0  0  0  0  0  0  0  0
   12.9333    6.4299    0.0000 H   0  0  0  0  0  0  0  0  0  0  0  0
   13.7803    6.2030    0.0000 H   0  0  0  0  0  0  0  0  0  0  0  0
   14.0072    7.0499    0.0000 H   0  0  0  0  0  0  0  0  0  0  0  0
    3.6391   -4.5840    0.0000 H   0  0  0  0  0  0  0  0  0  0  0  0
    9.6822    6.6429    0.0000 H   0  0  0  0  0  0  0  0  0  0  0  0
    8.8352    6.4160    0.0000 H   0  0  0  0  0  0  0  0  0  0  0  0
    9.0622    5.5690    0.0000 H   0  0  0  0  0  0  0  0  0  0  0  0
   10.7751    4.2960    0.0000 H   0  0  0  0  0  0  0  0  0  0  0  0
    5.5981   -5.4310    0.0000 H   0  0  0  0  0  0  0  0  0  0  0  0
    6.4450   -5.2040    0.0000 H   0  0  0  0  0  0  0  0  0  0  0  0
    6.2181   -4.3571    0.0000 H   0  0  0  0  0  0  0  0  0  0  0  0
    4.5051   -3.0840    0.0000 H   0  0  0  0  0  0  0  0  0  0  0  0
    8.8352    4.4160    0.0000 H   0  0  0  0  0  0  0  0  0  0  0  0
    6.4450   -3.2040    0.0000 H   0  0  0  0  0  0  0  0  0  0  0  0
    9.9091    2.7960    0.0000 H   0  0  0  0  0  0  0  0  0  0  0  0
    5.3711   -1.5840    0.0000 H   0  0  0  0  0  0  0  0  0  0  0  0
    7.9501    3.6429    0.0000 H   0  0  0  0  0  0  0  0  0  0  0  0
    7.1032    3.4160    0.0000 H   0  0  0  0  0  0  0  0  0  0  0  0
    7.3301    2.5690    0.0000 H   0  0  0  0  0  0  0  0  0  0  0  0
    9.0431    1.2960    0.0000 H   0  0  0  0  0  0  0  0  0  0  0  0
    6.2372   -0.0840    0.0000 H   0  0  0  0  0  0  0  0  0  0  0  0
    7.3301   -2.4310    0.0000 H   0  0  0  0  0  0  0  0  0  0  0  0
    8.1771   -2.2040    0.0000 H   0  0  0  0  0  0  0  0  0  0  0  0
    7.9501   -1.3571    0.0000 H   0  0  0  0  0  0  0  0  0  0  0  0
    7.1032    1.4160    0.0000 H   0  0  0  0  0  0  0  0  0  0  0  0
    8.1771   -0.2040    0.0000 H   0  0  0  0  0  0  0  0  0  0  0  0
  7  1  1  1  0  0  0
  1 71  1  0  0  0  0
 10  2  1  6  0  0  0
  2 72  1  0  0  0  0
 13  3  1  1  0  0  0
  3 73  1  0  0  0  0
  4 22  2  0  0  0  0
  5 26  2  0  0  0  0
  6  8  1  0  0  0  0
  6 12  1  0  0  0  0
  6 15  1  0  0  0  0
  6 16  1  0  0  0  0
  7 11  1  0  0  0  0
  7 12  1  0  0  0  0
  7 19  1  0  0  0  0
  8 10  1  0  0  0  0
  8 46  1  0  0  0  0
  8 47  1  0  0  0  0
  9 13  1  0  0  0  0
  9 14  1  0  0  0  0
  9 20  1  0  0  0  0
  9 21  1  0  0  0  0
 10 11  1  0  0  0  0
 10 48  1  0  0  0  0
 11 49  1  0  0  0  0
 11 50  1  0  0  0  0
 12 24  2  0  0  0  0
 13 17  1  0  0  0  0
 13 18  1  0  0  0  0
 14 22  1  0  0  0  0
 14 51  1  0  0  0  0
 14 52  1  0  0  0  0
 15 53  1  0  0  0  0
 15 54  1  0  0  0  0
 15 55  1  0  0  0  0
 16 56  1  0  0  0  0
 16 57  1  0  0  0  0
 16 58  1  0  0  0  0
 17 23  2  0  0  0  0
 17 25  1  0  0  0  0
 18 26  1  0  0  0  0
 18 59  1  0  0  0  0
 18 60  1  0  0  0  0
 19 61  1  0  0  0  0
 19 62  1  0  0  0  0
 19 63  1  0  0  0  0
 20 64  1  0  0  0  0
 20 65  1  0  0  0  0
 20 66  1  0  0  0  0
 21 67  1  0  0  0  0
 21 68  1  0  0  0  0
 21 69  1  0  0  0  0
 22 23  1  0  0  0  0
 23 70  1  0  0  0  0
 24 27  2  0  0  0  0
 25 74  1  0  0  0  0
 25 75  1  0  0  0  0
 25 76  1  0  0  0  0
 26 28  1  0  0  0  0
 27 29  1  0  0  0  0
 27 77  1  0  0  0  0
 28 30  1  0  0  0  0
 28 31  2  0  0  0  0
 29 32  1  0  0  0  0
 29 33  2  0  0  0  0
 30 78  1  0  0  0  0
 30 79  1  0  0  0  0
 30 80  1  0  0  0  0
 31 34  1  0  0  0  0
 31 81  1  0  0  0  0
 32 82  1  0  0  0  0
 32 83  1  0  0  0  0
 32 84  1  0  0  0  0
 33 35  1  0  0  0  0
 33 85  1  0  0  0  0
 34 36  2  0  0  0  0
 34 86  1  0  0  0  0
 35 37  2  0  0  0  0
 35 87  1  0  0  0  0
 36 38  1  0  0  0  0
 36 88  1  0  0  0  0
 37 39  1  0  0  0  0
 37 89  1  0  0  0  0
 38 40  1  0  0  0  0
 38 41  2  0  0  0  0
 39 42  2  0  0  0  0
 39 43  1  0  0  0  0
 40 90  1  0  0  0  0
 40 91  1  0  0  0  0
 40 92  1  0  0  0  0
 41 44  1  0  0  0  0
 41 93  1  0  0  0  0
 42 45  1  0  0  0  0
 42 94  1  0  0  0  0
 43 95  1  0  0  0  0
 43 96  1  0  0  0  0
 43 97  1  0  0  0  0
 44 45  2  0  0  0  0
 44 98  1  0  0  0  0
 45 99  1  0  0  0  0
M  END
> <PUBCHEM_COMPOUND_CID>
16061220

> <PUBCHEM_COMPOUND_CANONICALIZED>
0

> <PUBCHEM_CACTVS_COMPLEXITY>
1460

> <PUBCHEM_CACTVS_HBOND_ACCEPTOR>
5

> <PUBCHEM_CACTVS_HBOND_DONOR>
3

> <PUBCHEM_CACTVS_ROTATABLE_BOND>
10

> <PUBCHEM_CACTVS_SUBSKEYS>
AAADcfB8OAAAAAAAAAAAAAAAAAAAAAAAAAAwQAAAAAAAAAAAAAAAGgAACAAADlSggAICAAAAAgCIAqBSAAAAAAAgAAAICAEAAEgIFBYAAQAAUAAFoAAIkYOK6NSPgAAAAAAAAAAAAAYQAAAAAAAAAAAAAA==

> <PUBCHEM_IUPAC_INCHI>
InChI=1S/C40H54O5/c1-28(17-13-18-30(3)21-22-36-37(6,7)24-34(42)26-39(36,10)44)15-11-12-16-29(2)19-14-20-31(4)35(43)27-40(45)32(5)23-33(41)25-38(40,8)9/h11-21,23,34,42,44-45H,24-27H2,1-10H3/b12-11+,17-13+,19-14+,28-15+,29-16+,30-18+,31-20+/t22?,34-,39+,40+/m0/s1

> <PUBCHEM_IUPAC_INCHIKEY>
NBAOGGCOLYTLDU-MEPQDIAVSA-N

> <PUBCHEM_XLOGP3_AA>
7.3

> <PUBCHEM_EXACT_MASS>
614.39712482

> <PUBCHEM_MOLECULAR_FORMULA>
C40H54O5

> <PUBCHEM_MOLECULAR_WEIGHT>
614.9

> <PUBCHEM_OPENEYE_CAN_SMILES>
CC1=CC(=O)CC(C1(CC(=O)C(=CC=CC(=CC=CC=C(C)C=CC=C(C)C=C=C2C(CC(CC2(C)O)O)(C)C)C)C)O)(C)C

> <PUBCHEM_OPENEYE_ISO_SMILES>
CC1=CC(=O)CC([C@]1(CC(=O)/C(=C/C=C/C(=C/C=C/C=C(\C)/C=C/C=C(\C)/C=C=C2[C@](C[C@H](CC2(C)C)O)(C)O)/C)/C)O)(C)C

> <PUBCHEM_CACTVS_TPSA>
94.8

> <PUBCHEM_MONOISOTOPIC_WEIGHT>
614.39712482

> <PUBCHEM_TOTAL_CHARGE>
0

> <PUBCHEM_HEAVY_ATOM_COUNT>
45

> <PUBCHEM_ATOM_DEF_STEREO_COUNT>
3

> <PUBCHEM_ATOM_UDEF_STEREO_COUNT>
0

> <PUBCHEM_BOND_DEF_STEREO_COUNT>
7

> <PUBCHEM_BOND_UDEF_STEREO_COUNT>
0

> <PUBCHEM_ISOTOPIC_ATOM_COUNT>
0

> <PUBCHEM_COMPONENT_COUNT>
1

> <PUBCHEM_CACTVS_TAUTO_COUNT>
10

> <PUBCHEM_COORDINATE_TYPE>
1
5
255

> <PUBCHEM_BONDANNOTATIONS>
7  1  5
10  2  6
13  3  5

$$$$
