23426721
  -OEChem-02212201162D

 84 89  0     0  0  0  0  0  0999 V2000
   12.3845   -1.5809    0.0000 O   0  0  0  0  0  0  0  0  0  0  0  0
    9.0215   -1.4485    0.0000 O   0  0  0  0  0  0  0  0  0  0  0  0
    9.0215    0.6209    0.0000 O   0  0  0  0  0  0  0  0  0  0  0  0
   10.7814    1.5862    0.0000 O   0  0  0  0  0  0  0  0  0  0  0  0
    9.3765   -3.0992    0.0000 O   0  0  0  0  0  0  0  0  0  0  0  0
    7.1958    1.6639    0.0000 O   0  0  0  0  0  0  0  0  0  0  0  0
   12.2255   -5.1822    0.0000 O   0  0  0  0  0  0  0  0  0  0  0  0
    7.1958   -2.4915    0.0000 O   0  0  0  0  0  0  0  0  0  0  0  0
    5.3764    0.6320    0.0000 O   0  0  0  0  0  0  0  0  0  0  0  0
   12.5135    1.5862    0.0000 O   0  0  0  0  0  0  0  0  0  0  0  0
    7.7868   -3.7868    0.0000 O   0  0  0  0  0  0  0  0  0  0  0  0
   13.8045   -4.4702    0.0000 O   0  0  0  0  0  0  0  0  0  0  0  0
    3.7319    1.7039    0.0000 O   0  0  0  0  0  0  0  0  0  0  0  0
    5.4986    4.6837    0.0000 O   0  0  0  0  0  0  0  0  0  0  0  0
    5.4639   -2.5115    0.0000 O   0  0  0  0  0  0  0  0  0  0  0  0
    3.6443    0.6387    0.0000 O   0  0  0  0  0  0  0  0  0  0  0  0
    2.8833    3.2138    0.0000 O   0  0  0  0  0  0  0  0  0  0  0  0
    3.7666    4.7037    0.0000 O   0  0  0  0  0  0  0  0  0  0  0  0
   10.7814   -1.4138    0.0000 C   0  0  0  0  0  0  0  0  0  0  0  0
   10.9906   -2.3856    0.0000 C   0  0  0  0  0  0  0  0  0  0  0  0
    9.9154   -0.9138    0.0000 C   0  0  0  0  0  0  0  0  0  0  0  0
   11.6475   -0.9138    0.0000 C   0  0  0  0  0  0  0  0  0  0  0  0
   11.9794   -2.4887    0.0000 C   0  0  0  0  0  0  0  0  0  0  0  0
    9.9154    0.0862    0.0000 C   0  0  0  0  0  0  0  0  0  0  0  0
   11.6475    0.0862    0.0000 C   0  0  0  0  0  0  0  0  0  0  0  0
   10.7814    0.5862    0.0000 C   0  0  0  0  0  0  0  0  0  0  0  0
   10.3699   -3.2144    0.0000 C   0  0  0  0  0  0  0  0  0  0  0  0
    8.1154   -0.9346    0.0000 C   0  0  0  0  0  0  0  0  0  0  0  0
    8.1154    0.1070    0.0000 C   0  0  0  0  0  0  0  0  0  0  0  0
   12.4159   -3.4276    0.0000 C   0  0  0  0  0  0  0  0  0  0  0  0
   10.7846   -4.1632    0.0000 C   0  0  0  0  0  0  0  0  0  0  0  0
   11.8144   -4.2705    0.0000 C   0  0  0  0  0  0  0  0  0  0  0  0
    7.1842    0.6639    0.0000 C   0  0  0  0  0  0  0  0  0  0  0  0
    7.1842   -1.4915    0.0000 C   0  0  0  0  0  0  0  0  0  0  0  0
    6.2404    0.1287    0.0000 C   0  0  0  0  0  0  0  0  0  0  0  0
    6.2404   -0.9563    0.0000 C   0  0  0  0  0  0  0  0  0  0  0  0
   11.6475    2.0862    0.0000 C   0  0  0  0  0  0  0  0  0  0  0  0
    6.3356    2.1738    0.0000 C   0  0  0  0  0  0  0  0  0  0  0  0
    8.7801   -3.9019    0.0000 C   0  0  0  0  0  0  0  0  0  0  0  0
   13.2205   -5.2820    0.0000 C   0  0  0  0  0  0  0  0  0  0  0  0
    6.3356   -3.0015    0.0000 C   0  0  0  0  0  0  0  0  0  0  0  0
    6.3472    3.1738    0.0000 C   0  0  0  0  0  0  0  0  0  0  0  0
    5.4639    1.6839    0.0000 C   0  0  0  0  0  0  0  0  0  0  0  0
   11.6475    3.0862    0.0000 C   0  0  0  0  0  0  0  0  0  0  0  0
    9.1771   -4.8198    0.0000 C   0  0  0  0  0  0  0  0  0  0  0  0
    4.5084    0.1354    0.0000 C   0  0  0  0  0  0  0  0  0  0  0  0
    4.6037    2.1939    0.0000 C   0  0  0  0  0  0  0  0  0  0  0  0
    5.4870    3.6838    0.0000 C   0  0  0  0  0  0  0  0  0  0  0  0
    4.6152    3.1938    0.0000 C   0  0  0  0  0  0  0  0  0  0  0  0
   13.6315   -6.1936    0.0000 C   0  0  0  0  0  0  0  0  0  0  0  0
    6.3472   -4.0014    0.0000 C   0  0  0  0  0  0  0  0  0  0  0  0
    4.5046   -0.8646    0.0000 C   0  0  0  0  0  0  0  0  0  0  0  0
    2.8718    2.2139    0.0000 C   0  0  0  0  0  0  0  0  0  0  0  0
    4.6384    5.1937    0.0000 C   0  0  0  0  0  0  0  0  0  0  0  0
    2.0000    1.7239    0.0000 C   0  0  0  0  0  0  0  0  0  0  0  0
    4.6499    6.1936    0.0000 C   0  0  0  0  0  0  0  0  0  0  0  0
   12.1844    0.3962    0.0000 H   0  0  0  0  0  0  0  0  0  0  0  0
   13.0332   -3.4848    0.0000 H   0  0  0  0  0  0  0  0  0  0  0  0
   10.4186   -4.6637    0.0000 H   0  0  0  0  0  0  0  0  0  0  0  0
    5.7047   -1.2684    0.0000 H   0  0  0  0  0  0  0  0  0  0  0  0
    6.8877    3.4775    0.0000 H   0  0  0  0  0  0  0  0  0  0  0  0
    5.4567    1.0639    0.0000 H   0  0  0  0  0  0  0  0  0  0  0  0
   12.2675    3.0862    0.0000 H   0  0  0  0  0  0  0  0  0  0  0  0
   11.6475    3.7062    0.0000 H   0  0  0  0  0  0  0  0  0  0  0  0
   11.0275    3.0862    0.0000 H   0  0  0  0  0  0  0  0  0  0  0  0
    8.6080   -5.0659    0.0000 H   0  0  0  0  0  0  0  0  0  0  0  0
    9.4232   -5.3888    0.0000 H   0  0  0  0  0  0  0  0  0  0  0  0
    9.7461   -4.5736    0.0000 H   0  0  0  0  0  0  0  0  0  0  0  0
    4.0819    3.5100    0.0000 H   0  0  0  0  0  0  0  0  0  0  0  0
   13.0663   -6.4484    0.0000 H   0  0  0  0  0  0  0  0  0  0  0  0
   13.8864   -6.7588    0.0000 H   0  0  0  0  0  0  0  0  0  0  0  0
   14.1967   -5.9388    0.0000 H   0  0  0  0  0  0  0  0  0  0  0  0
    5.7272   -4.0086    0.0000 H   0  0  0  0  0  0  0  0  0  0  0  0
    6.3544   -4.6213    0.0000 H   0  0  0  0  0  0  0  0  0  0  0  0
    6.9671   -3.9942    0.0000 H   0  0  0  0  0  0  0  0  0  0  0  0
    3.8846   -0.8622    0.0000 H   0  0  0  0  0  0  0  0  0  0  0  0
    4.5022   -1.4846    0.0000 H   0  0  0  0  0  0  0  0  0  0  0  0
    5.1246   -0.8670    0.0000 H   0  0  0  0  0  0  0  0  0  0  0  0
    1.6962    2.2644    0.0000 H   0  0  0  0  0  0  0  0  0  0  0  0
    1.4595    1.4202    0.0000 H   0  0  0  0  0  0  0  0  0  0  0  0
    2.3038    1.1835    0.0000 H   0  0  0  0  0  0  0  0  0  0  0  0
    5.2699    6.1864    0.0000 H   0  0  0  0  0  0  0  0  0  0  0  0
    4.6571    6.8136    0.0000 H   0  0  0  0  0  0  0  0  0  0  0  0
    4.0300    6.2008    0.0000 H   0  0  0  0  0  0  0  0  0  0  0  0
  1 22  1  0  0  0  0
  1 23  1  0  0  0  0
  2 21  1  0  0  0  0
  2 28  1  0  0  0  0
  3 24  1  0  0  0  0
  3 29  1  0  0  0  0
  4 26  1  0  0  0  0
  4 37  1  0  0  0  0
  5 27  1  0  0  0  0
  5 39  1  0  0  0  0
  6 33  1  0  0  0  0
  6 38  1  0  0  0  0
  7 32  1  0  0  0  0
  7 40  1  0  0  0  0
  8 34  1  0  0  0  0
  8 41  1  0  0  0  0
  9 35  1  0  0  0  0
  9 46  1  0  0  0  0
 10 37  2  0  0  0  0
 11 39  2  0  0  0  0
 12 40  2  0  0  0  0
 13 47  1  0  0  0  0
 13 53  1  0  0  0  0
 14 48  1  0  0  0  0
 14 54  1  0  0  0  0
 15 41  2  0  0  0  0
 16 46  2  0  0  0  0
 17 53  2  0  0  0  0
 18 54  2  0  0  0  0
 19 20  1  0  0  0  0
 19 21  2  0  0  0  0
 19 22  1  0  0  0  0
 20 23  2  0  0  0  0
 20 27  1  0  0  0  0
 21 24  1  0  0  0  0
 22 25  2  0  0  0  0
 23 30  1  0  0  0  0
 24 26  2  0  0  0  0
 25 26  1  0  0  0  0
 25 57  1  0  0  0  0
 27 31  2  0  0  0  0
 28 29  2  0  0  0  0
 28 34  1  0  0  0  0
 29 33  1  0  0  0  0
 30 32  2  0  0  0  0
 30 58  1  0  0  0  0
 31 32  1  0  0  0  0
 31 59  1  0  0  0  0
 33 35  2  0  0  0  0
 34 36  2  0  0  0  0
 35 36  1  0  0  0  0
 36 60  1  0  0  0  0
 37 44  1  0  0  0  0
 38 42  2  0  0  0  0
 38 43  1  0  0  0  0
 39 45  1  0  0  0  0
 40 50  1  0  0  0  0
 41 51  1  0  0  0  0
 42 48  1  0  0  0  0
 42 61  1  0  0  0  0
 43 47  2  0  0  0  0
 43 62  1  0  0  0  0
 44 63  1  0  0  0  0
 44 64  1  0  0  0  0
 44 65  1  0  0  0  0
 45 66  1  0  0  0  0
 45 67  1  0  0  0  0
 45 68  1  0  0  0  0
 46 52  1  0  0  0  0
 47 49  1  0  0  0  0
 48 49  2  0  0  0  0
 49 69  1  0  0  0  0
 50 70  1  0  0  0  0
 50 71  1  0  0  0  0
 50 72  1  0  0  0  0
 51 73  1  0  0  0  0
 51 74  1  0  0  0  0
 51 75  1  0  0  0  0
 52 76  1  0  0  0  0
 52 77  1  0  0  0  0
 52 78  1  0  0  0  0
 53 55  1  0  0  0  0
 54 56  1  0  0  0  0
 55 79  1  0  0  0  0
 55 80  1  0  0  0  0
 55 81  1  0  0  0  0
 56 82  1  0  0  0  0
 56 83  1  0  0  0  0
 56 84  1  0  0  0  0
M  END
> <PUBCHEM_COMPOUND_CID>
23426721

> <PUBCHEM_COMPOUND_CANONICALIZED>
1

> <PUBCHEM_CACTVS_COMPLEXITY>
1510

> <PUBCHEM_CACTVS_HBOND_ACCEPTOR>
18

> <PUBCHEM_CACTVS_HBOND_DONOR>
0

> <PUBCHEM_CACTVS_ROTATABLE_BOND>
16

> <PUBCHEM_CACTVS_SUBSKEYS>
AAADceB8PgAAAAAAAAAAAAAAAAAAASAAAAA0YMGCAAAAAEiR/AAAGgAAAAAADASAmAAyDsAABECIAqDSCAACCAAkIAAAiAEGiMgNJzaENRqCO2Kl4BUKqQfK7PzOoQABCAAIQABCAAIQABCAAAAAAAAAAA==

> <PUBCHEM_IUPAC_OPENEYE_NAME>
[3-acetoxy-5-(1,3,6,10,12-pentaacetoxybenzofuro[3,2-a]oxanthren-4-yl)oxy-phenyl] acetate

> <PUBCHEM_IUPAC_CAS_NAME>
acetic acid [3-acetyloxy-5-[(1,3,6,10,12-pentaacetyloxy-4-benzofuro[3,2-a]oxanthrenyl)oxy]phenyl] ester

> <PUBCHEM_IUPAC_NAME_MARKUP>
[3-acetyloxy-5-[(1,3,6,10,12-pentaacetyloxy-[1]benzofuro[3,2-a]oxanthren-4-yl)oxy]phenyl] acetate

> <PUBCHEM_IUPAC_NAME>
[3-acetyloxy-5-[(1,3,6,10,12-pentaacetyloxy-[1]benzofuro[3,2-a]oxanthren-4-yl)oxy]phenyl] acetate

> <PUBCHEM_IUPAC_SYSTEMATIC_NAME>
[3-acetyloxy-5-[(1,3,6,10,12-pentaacetyloxy-[1]benzofuro[3,2-a]oxanthren-4-yl)oxy]phenyl] ethanoate

> <PUBCHEM_IUPAC_TRADITIONAL_NAME>
acetic acid [3-acetoxy-5-(1,3,6,10,12-pentaacetoxybenzofuro[3,2-a]oxanthren-4-yl)oxy-phenyl] ester

> <PUBCHEM_IUPAC_INCHI>
InChI=1S/C38H28O18/c1-15(39)46-22-8-23(47-16(2)40)10-24(9-22)53-35-30(51-20(6)44)14-31(52-21(7)45)36-38(35)56-34-29(50-19(5)43)13-28-33(37(34)55-36)32-26(49-18(4)42)11-25(48-17(3)41)12-27(32)54-28/h8-14H,1-7H3

> <PUBCHEM_IUPAC_INCHIKEY>
OTOXYYMXFXPZII-UHFFFAOYSA-N

> <PUBCHEM_XLOGP3_AA>
4.6

> <PUBCHEM_EXACT_MASS>
772.12756404

> <PUBCHEM_MOLECULAR_FORMULA>
C38H28O18

> <PUBCHEM_MOLECULAR_WEIGHT>
772.6

> <PUBCHEM_OPENEYE_CAN_SMILES>
CC(=O)OC1=CC(=CC(=C1)OC2=C(C=C(C3=C2OC4=C(C=C5C(=C4O3)C6=C(O5)C=C(C=C6OC(=O)C)OC(=O)C)OC(=O)C)OC(=O)C)OC(=O)C)OC(=O)C

> <PUBCHEM_OPENEYE_ISO_SMILES>
CC(=O)OC1=CC(=CC(=C1)OC2=C(C=C(C3=C2OC4=C(C=C5C(=C4O3)C6=C(O5)C=C(C=C6OC(=O)C)OC(=O)C)OC(=O)C)OC(=O)C)OC(=O)C)OC(=O)C

> <PUBCHEM_CACTVS_TPSA>
225

> <PUBCHEM_MONOISOTOPIC_WEIGHT>
772.12756404

> <PUBCHEM_TOTAL_CHARGE>
0

> <PUBCHEM_HEAVY_ATOM_COUNT>
56

> <PUBCHEM_ATOM_DEF_STEREO_COUNT>
0

> <PUBCHEM_ATOM_UDEF_STEREO_COUNT>
0

> <PUBCHEM_BOND_DEF_STEREO_COUNT>
0

> <PUBCHEM_BOND_UDEF_STEREO_COUNT>
0

> <PUBCHEM_ISOTOPIC_ATOM_COUNT>
0

> <PUBCHEM_COMPONENT_COUNT>
1

> <PUBCHEM_CACTVS_TAUTO_COUNT>
-1

> <PUBCHEM_COORDINATE_TYPE>
1
5
255

> <PUBCHEM_BONDANNOTATIONS>
1  22  8
1  23  8
19  20  8
19  21  8
19  22  8
20  23  8
20  27  8
21  24  8
22  25  8
23  30  8
24  26  8
25  26  8
27  31  8
28  29  8
28  34  8
29  33  8
30  32  8
31  32  8
33  35  8
34  36  8
35  36  8
38  42  8
38  43  8
42  48  8
43  47  8
47  49  8
48  49  8

$$$$
