6369652
  -OEChem-02212201382D

 58 58  0     1  0  0  0  0  0999 V2000
    3.7071   -1.8795    0.0000 O   0  0  0  0  0  0  0  0  0  0  0  0
   10.6581   -0.0523    0.0000 O   0  0  0  0  0  0  0  0  0  0  0  0
    2.0000   -2.5866    0.0000 O   0  0  0  0  0  0  0  0  0  0  0  0
    8.9850   -0.5006    0.0000 O   0  0  0  0  0  0  0  0  0  0  0  0
    3.7071   -0.8795    0.0000 C   0  0  3  0  0  0  0  0  0  0  0  0
    4.4142   -0.1724    0.0000 C   0  0  3  0  0  0  0  0  0  0  0  0
    2.7071   -0.8795    0.0000 C   0  0  3  0  0  0  0  0  0  0  0  0
    5.3801   -0.4313    0.0000 C   0  0  0  0  0  0  0  0  0  0  0  0
    2.7071   -1.8795    0.0000 C   0  0  0  0  0  0  0  0  0  0  0  0
    9.4333    1.1724    0.0000 C   0  0  3  0  0  0  0  0  0  0  0  0
   10.3992    0.9136    0.0000 C   0  0  3  0  0  0  0  0  0  0  0  0
    4.1554    0.7935    0.0000 C   0  0  0  0  0  0  0  0  0  0  0  0
   11.1063    1.6207    0.0000 C   0  0  3  0  0  0  0  0  0  0  0  0
    6.0872    0.2759    0.0000 C   0  0  0  0  0  0  0  0  0  0  0  0
    2.0000   -0.1724    0.0000 C   0  0  0  0  0  0  0  0  0  0  0  0
    7.7603    0.7241    0.0000 C   0  0  3  0  0  0  0  0  0  0  0  0
    8.7262    0.4653    0.0000 C   0  0  0  0  0  0  0  0  0  0  0  0
    7.0532    0.0170    0.0000 C   0  0  0  0  0  0  0  0  0  0  0  0
   12.0723    1.3619    0.0000 C   0  0  0  0  0  0  0  0  0  0  0  0
    9.1745    2.1384    0.0000 C   0  0  0  0  0  0  0  0  0  0  0  0
   10.8475    2.5866    0.0000 C   0  0  0  0  0  0  0  0  0  0  0  0
    5.8284    1.2418    0.0000 C   0  0  0  0  0  0  0  0  0  0  0  0
    7.5015    1.6901    0.0000 C   0  0  0  0  0  0  0  0  0  0  0  0
   12.7794    2.0690    0.0000 C   0  0  0  0  0  0  0  0  0  0  0  0
    4.4924   -1.2048    0.0000 H   0  0  0  0  0  0  0  0  0  0  0  0
    5.0152    0.4286    0.0000 H   0  0  0  0  0  0  0  0  0  0  0  0
    3.0324   -0.0942    0.0000 H   0  0  0  0  0  0  0  0  0  0  0  0
    5.1181   -0.9932    0.0000 H   0  0  0  0  0  0  0  0  0  0  0  0
    5.8880   -0.7869    0.0000 H   0  0  0  0  0  0  0  0  0  0  0  0
   10.0344    1.7735    0.0000 H   0  0  0  0  0  0  0  0  0  0  0  0
   11.2203    0.6936    0.0000 H   0  0  0  0  0  0  0  0  0  0  0  0
    4.7543    0.9540    0.0000 H   0  0  0  0  0  0  0  0  0  0  0  0
    3.9949    1.3924    0.0000 H   0  0  0  0  0  0  0  0  0  0  0  0
    3.5565    0.6330    0.0000 H   0  0  0  0  0  0  0  0  0  0  0  0
   11.7074    2.2218    0.0000 H   0  0  0  0  0  0  0  0  0  0  0  0
    2.4384    0.2660    0.0000 H   0  0  0  0  0  0  0  0  0  0  0  0
    1.5616    0.2660    0.0000 H   0  0  0  0  0  0  0  0  0  0  0  0
    1.5616   -0.6108    0.0000 H   0  0  0  0  0  0  0  0  0  0  0  0
    6.9392    0.9441    0.0000 H   0  0  0  0  0  0  0  0  0  0  0  0
    7.2136   -0.5818    0.0000 H   0  0  0  0  0  0  0  0  0  0  0  0
   11.8102    0.8000    0.0000 H   0  0  0  0  0  0  0  0  0  0  0  0
   12.5801    1.0063    0.0000 H   0  0  0  0  0  0  0  0  0  0  0  0
    9.7734    2.2988    0.0000 H   0  0  0  0  0  0  0  0  0  0  0  0
    9.0140    2.7372    0.0000 H   0  0  0  0  0  0  0  0  0  0  0  0
    8.5756    1.9779    0.0000 H   0  0  0  0  0  0  0  0  0  0  0  0
   11.4464    2.7471    0.0000 H   0  0  0  0  0  0  0  0  0  0  0  0
   10.6871    3.1855    0.0000 H   0  0  0  0  0  0  0  0  0  0  0  0
   10.2487    2.4262    0.0000 H   0  0  0  0  0  0  0  0  0  0  0  0
    6.4273    1.4022    0.0000 H   0  0  0  0  0  0  0  0  0  0  0  0
    5.6680    1.8407    0.0000 H   0  0  0  0  0  0  0  0  0  0  0  0
    5.2296    1.0813    0.0000 H   0  0  0  0  0  0  0  0  0  0  0  0
    8.1003    1.8505    0.0000 H   0  0  0  0  0  0  0  0  0  0  0  0
    7.3410    2.2889    0.0000 H   0  0  0  0  0  0  0  0  0  0  0  0
    6.9026    1.5296    0.0000 H   0  0  0  0  0  0  0  0  0  0  0  0
   11.2569   -0.2128    0.0000 H   0  0  0  0  0  0  0  0  0  0  0  0
   13.2178    1.6306    0.0000 H   0  0  0  0  0  0  0  0  0  0  0  0
   13.2178    2.5074    0.0000 H   0  0  0  0  0  0  0  0  0  0  0  0
   12.3410    2.5074    0.0000 H   0  0  0  0  0  0  0  0  0  0  0  0
  1  5  1  0  0  0  0
  1  9  1  0  0  0  0
  2 11  1  0  0  0  0
  2 55  1  0  0  0  0
  3  9  2  0  0  0  0
  4 17  2  0  0  0  0
  5  6  1  0  0  0  0
  5  7  1  0  0  0  0
  5 25  1  0  0  0  0
  6  8  1  0  0  0  0
  6 12  1  0  0  0  0
  6 26  1  0  0  0  0
  7  9  1  0  0  0  0
  7 15  1  0  0  0  0
  7 27  1  0  0  0  0
  8 14  1  0  0  0  0
  8 28  1  0  0  0  0
  8 29  1  0  0  0  0
 10 11  1  0  0  0  0
 10 17  1  0  0  0  0
 10 20  1  0  0  0  0
 10 30  1  0  0  0  0
 11 13  1  0  0  0  0
 11 31  1  0  0  0  0
 12 32  1  0  0  0  0
 12 33  1  0  0  0  0
 12 34  1  0  0  0  0
 13 19  1  0  0  0  0
 13 21  1  0  0  0  0
 13 35  1  0  0  0  0
 14 18  2  0  0  0  0
 14 22  1  0  0  0  0
 15 36  1  0  0  0  0
 15 37  1  0  0  0  0
 15 38  1  0  0  0  0
 16 17  1  0  0  0  0
 16 18  1  0  0  0  0
 16 23  1  0  0  0  0
 16 39  1  0  0  0  0
 18 40  1  0  0  0  0
 19 24  1  0  0  0  0
 19 41  1  0  0  0  0
 19 42  1  0  0  0  0
 20 43  1  0  0  0  0
 20 44  1  0  0  0  0
 20 45  1  0  0  0  0
 21 46  1  0  0  0  0
 21 47  1  0  0  0  0
 21 48  1  0  0  0  0
 22 49  1  0  0  0  0
 22 50  1  0  0  0  0
 22 51  1  0  0  0  0
 23 52  1  0  0  0  0
 23 53  1  0  0  0  0
 23 54  1  0  0  0  0
 24 56  1  0  0  0  0
 24 57  1  0  0  0  0
 24 58  1  0  0  0  0
M  END
> <PUBCHEM_COMPOUND_CID>
6369652

> <PUBCHEM_COMPOUND_CANONICALIZED>
1

> <PUBCHEM_CACTVS_COMPLEXITY>
482

> <PUBCHEM_CACTVS_HBOND_ACCEPTOR>
4

> <PUBCHEM_CACTVS_HBOND_DONOR>
1

> <PUBCHEM_CACTVS_ROTATABLE_BOND>
9

> <PUBCHEM_CACTVS_SUBSKEYS>
AAADcfB4OAAAAAAAAAAAAAAAAABIAAAAAAAAAAAAAAAAAAAAAAAAGgAACAAADRSggAICCAAABgCIAqDSCAAAAAAgAAAACAEAAAgAEBYAAQACQAAEoAAIAAOIyOCOAAAAAAAAAAAAAAAAAAAAAAAAAAAAAA==

> <PUBCHEM_IUPAC_OPENEYE_NAME>
4-[(E)-8-hydroxy-1,3,5,7,9-pentamethyl-6-oxo-undec-3-enyl]-3-methyl-oxetan-2-one

> <PUBCHEM_IUPAC_CAS_NAME>
4-[(E)-9-hydroxy-4,6,8,10-tetramethyl-7-oxododec-4-en-2-yl]-3-methyl-2-oxetanone

> <PUBCHEM_IUPAC_NAME_MARKUP>
4-[(<I>E</I>)-9-hydroxy-4,6,8,10-tetramethyl-7-oxododec-4-en-2-yl]-3-methyloxetan-2-one

> <PUBCHEM_IUPAC_NAME>
4-[(E)-9-hydroxy-4,6,8,10-tetramethyl-7-oxododec-4-en-2-yl]-3-methyloxetan-2-one

> <PUBCHEM_IUPAC_SYSTEMATIC_NAME>
3-methyl-4-[(E)-4,6,8,10-tetramethyl-9-oxidanyl-7-oxidanylidene-dodec-4-en-2-yl]oxetan-2-one

> <PUBCHEM_IUPAC_TRADITIONAL_NAME>
4-[(E)-8-hydroxy-6-keto-1,3,5,7,9-pentamethyl-undec-3-enyl]-3-methyl-oxetan-2-one

> <PUBCHEM_IUPAC_INCHI>
InChI=1S/C20H34O4/c1-8-12(3)17(21)15(6)18(22)13(4)9-11(2)10-14(5)19-16(7)20(23)24-19/h9,12-17,19,21H,8,10H2,1-7H3/b11-9+

> <PUBCHEM_IUPAC_INCHIKEY>
WOISDAHQBUYEAF-PKNBQFBNSA-N

> <PUBCHEM_XLOGP3_AA>
4.6

> <PUBCHEM_EXACT_MASS>
338.24570956

> <PUBCHEM_MOLECULAR_FORMULA>
C20H34O4

> <PUBCHEM_MOLECULAR_WEIGHT>
338.5

> <PUBCHEM_OPENEYE_CAN_SMILES>
CCC(C)C(C(C)C(=O)C(C)C=C(C)CC(C)C1C(C(=O)O1)C)O

> <PUBCHEM_OPENEYE_ISO_SMILES>
CCC(C)C(C(C)C(=O)C(C)/C=C(\C)/CC(C)C1C(C(=O)O1)C)O

> <PUBCHEM_CACTVS_TPSA>
63.6

> <PUBCHEM_MONOISOTOPIC_WEIGHT>
338.24570956

> <PUBCHEM_TOTAL_CHARGE>
0

> <PUBCHEM_HEAVY_ATOM_COUNT>
24

> <PUBCHEM_ATOM_DEF_STEREO_COUNT>
0

> <PUBCHEM_ATOM_UDEF_STEREO_COUNT>
7

> <PUBCHEM_BOND_DEF_STEREO_COUNT>
1

> <PUBCHEM_BOND_UDEF_STEREO_COUNT>
0

> <PUBCHEM_ISOTOPIC_ATOM_COUNT>
0

> <PUBCHEM_COMPONENT_COUNT>
1

> <PUBCHEM_CACTVS_TAUTO_COUNT>
10

> <PUBCHEM_COORDINATE_TYPE>
1
5
255

> <PUBCHEM_BONDANNOTATIONS>
10  30  3
11  31  3
13  35  3
16  39  3
5  25  3
6  26  3
7  27  3

$$$$
