125669
  -OEChem-02212201352D

 82 82  0     1  0  0  0  0  0999 V2000
    8.0191    0.2043    0.0000 O   0  0  0  0  0  0  0  0  0  0  0  0
   10.3992    2.3597    0.0000 O   0  0  0  0  0  0  0  0  0  0  0  0
    6.3120   -0.5028    0.0000 O   0  0  0  0  0  0  0  0  0  0  0  0
   11.6240    1.1349    0.0000 O   0  0  0  0  0  0  0  0  0  0  0  0
   10.1404    3.3256    0.0000 O   0  0  0  0  0  0  0  0  0  0  0  0
   13.4865    4.2222    0.0000 O   0  0  0  0  0  0  0  0  0  0  0  0
   13.0382    2.5492    0.0000 N   0  0  0  0  0  0  0  0  0  0  0  0
   10.5887    4.9986    0.0000 N   0  0  0  0  0  0  0  0  0  0  0  0
    7.0191    1.2043    0.0000 C   0  0  3  0  0  0  0  0  0  0  0  0
    8.0191    1.2043    0.0000 C   0  0  3  0  0  0  0  0  0  0  0  0
    6.3120    1.9114    0.0000 C   0  0  0  0  0  0  0  0  0  0  0  0
    8.7262    1.9114    0.0000 C   0  0  0  0  0  0  0  0  0  0  0  0
    7.0191    0.2043    0.0000 C   0  0  0  0  0  0  0  0  0  0  0  0
    9.6921    1.6526    0.0000 C   0  0  3  0  0  0  0  0  0  0  0  0
    5.3461    1.6526    0.0000 C   0  0  0  0  0  0  0  0  0  0  0  0
    4.6390    2.3597    0.0000 C   0  0  0  0  0  0  0  0  0  0  0  0
    9.9510    0.6867    0.0000 C   0  0  0  0  0  0  0  0  0  0  0  0
    3.6730    2.1009    0.0000 C   0  0  0  0  0  0  0  0  0  0  0  0
    2.9659    2.8080    0.0000 C   0  0  0  0  0  0  0  0  0  0  0  0
   10.9169    0.4278    0.0000 C   0  0  0  0  0  0  0  0  0  0  0  0
   11.3652    2.1009    0.0000 C   0  0  0  0  0  0  0  0  0  0  0  0
   12.0723    2.8080    0.0000 C   0  0  3  0  0  0  0  0  0  0  0  0
    2.0000    2.5492    0.0000 C   0  0  0  0  0  0  0  0  0  0  0  0
   11.1757   -0.5381    0.0000 C   0  0  0  0  0  0  0  0  0  0  0  0
   11.8135    3.7739    0.0000 C   0  0  0  0  0  0  0  0  0  0  0  0
   12.1416   -0.7969    0.0000 C   0  0  0  0  0  0  0  0  0  0  0  0
   12.4004   -1.7628    0.0000 C   0  0  0  0  0  0  0  0  0  0  0  0
   10.8475    4.0327    0.0000 C   0  0  0  0  0  0  0  0  0  0  0  0
   13.7453    3.2563    0.0000 C   0  0  0  0  0  0  0  0  0  0  0  0
   13.3664   -2.0216    0.0000 C   0  0  0  0  0  0  0  0  0  0  0  0
   13.6252   -2.9876    0.0000 C   0  0  0  0  0  0  0  0  0  0  0  0
   14.5911   -3.2464    0.0000 C   0  0  0  0  0  0  0  0  0  0  0  0
   14.8499   -4.2123    0.0000 C   0  0  0  0  0  0  0  0  0  0  0  0
   14.7112    2.9974    0.0000 C   0  0  0  0  0  0  0  0  0  0  0  0
   15.8159   -4.4711    0.0000 C   0  0  0  0  0  0  0  0  0  0  0  0
   16.0747   -5.4371    0.0000 C   0  0  0  0  0  0  0  0  0  0  0  0
    6.2338    0.8790    0.0000 H   0  0  0  0  0  0  0  0  0  0  0  0
    8.8044    0.8790    0.0000 H   0  0  0  0  0  0  0  0  0  0  0  0
    6.8199    2.2670    0.0000 H   0  0  0  0  0  0  0  0  0  0  0  0
    6.0500    2.4733    0.0000 H   0  0  0  0  0  0  0  0  0  0  0  0
    8.9882    2.4733    0.0000 H   0  0  0  0  0  0  0  0  0  0  0  0
    8.2183    2.2670    0.0000 H   0  0  0  0  0  0  0  0  0  0  0  0
    9.4721    2.4736    0.0000 H   0  0  0  0  0  0  0  0  0  0  0  0
    4.8382    1.2970    0.0000 H   0  0  0  0  0  0  0  0  0  0  0  0
    5.6081    1.0907    0.0000 H   0  0  0  0  0  0  0  0  0  0  0  0
    5.1468    2.7153    0.0000 H   0  0  0  0  0  0  0  0  0  0  0  0
    4.3769    2.9216    0.0000 H   0  0  0  0  0  0  0  0  0  0  0  0
    9.3333    0.6326    0.0000 H   0  0  0  0  0  0  0  0  0  0  0  0
    9.8969    0.0690    0.0000 H   0  0  0  0  0  0  0  0  0  0  0  0
    3.1652    1.7453    0.0000 H   0  0  0  0  0  0  0  0  0  0  0  0
    3.9351    1.5390    0.0000 H   0  0  0  0  0  0  0  0  0  0  0  0
    3.4738    3.1636    0.0000 H   0  0  0  0  0  0  0  0  0  0  0  0
    2.7039    3.3699    0.0000 H   0  0  0  0  0  0  0  0  0  0  0  0
   11.3553    0.8663    0.0000 H   0  0  0  0  0  0  0  0  0  0  0  0
   12.2923    1.9870    0.0000 H   0  0  0  0  0  0  0  0  0  0  0  0
    1.8395    3.1480    0.0000 H   0  0  0  0  0  0  0  0  0  0  0  0
    1.4011    2.3887    0.0000 H   0  0  0  0  0  0  0  0  0  0  0  0
    2.1605    1.9503    0.0000 H   0  0  0  0  0  0  0  0  0  0  0  0
   10.7373   -0.9765    0.0000 H   0  0  0  0  0  0  0  0  0  0  0  0
   12.4311    3.8280    0.0000 H   0  0  0  0  0  0  0  0  0  0  0  0
   11.8675    4.3915    0.0000 H   0  0  0  0  0  0  0  0  0  0  0  0
   12.7593   -0.7429    0.0000 H   0  0  0  0  0  0  0  0  0  0  0  0
   12.1957   -0.1793    0.0000 H   0  0  0  0  0  0  0  0  0  0  0  0
   13.1987    1.9503    0.0000 H   0  0  0  0  0  0  0  0  0  0  0  0
   11.9620   -2.2012    0.0000 H   0  0  0  0  0  0  0  0  0  0  0  0
   13.8048   -1.5832    0.0000 H   0  0  0  0  0  0  0  0  0  0  0  0
   13.0075   -3.0416    0.0000 H   0  0  0  0  0  0  0  0  0  0  0  0
   13.5711   -3.6052    0.0000 H   0  0  0  0  0  0  0  0  0  0  0  0
   15.2088   -3.1923    0.0000 H   0  0  0  0  0  0  0  0  0  0  0  0
   14.6451   -2.6288    0.0000 H   0  0  0  0  0  0  0  0  0  0  0  0
   14.2323   -4.2664    0.0000 H   0  0  0  0  0  0  0  0  0  0  0  0
   14.7959   -4.8300    0.0000 H   0  0  0  0  0  0  0  0  0  0  0  0
   14.5508    2.3986    0.0000 H   0  0  0  0  0  0  0  0  0  0  0  0
   15.3101    2.8370    0.0000 H   0  0  0  0  0  0  0  0  0  0  0  0
   14.8717    3.5963    0.0000 H   0  0  0  0  0  0  0  0  0  0  0  0
   16.4335   -4.4171    0.0000 H   0  0  0  0  0  0  0  0  0  0  0  0
   15.8699   -3.8535    0.0000 H   0  0  0  0  0  0  0  0  0  0  0  0
    9.9898    5.1591    0.0000 H   0  0  0  0  0  0  0  0  0  0  0  0
   11.0271    5.4371    0.0000 H   0  0  0  0  0  0  0  0  0  0  0  0
   15.4758   -5.5975    0.0000 H   0  0  0  0  0  0  0  0  0  0  0  0
   16.2351   -6.0359    0.0000 H   0  0  0  0  0  0  0  0  0  0  0  0
   16.6735   -5.2766    0.0000 H   0  0  0  0  0  0  0  0  0  0  0  0
  1 10  1  0  0  0  0
  1 13  1  0  0  0  0
  2 14  1  0  0  0  0
  2 21  1  0  0  0  0
  3 13  2  0  0  0  0
  4 21  2  0  0  0  0
  5 28  2  0  0  0  0
  6 29  2  0  0  0  0
  7 22  1  0  0  0  0
  7 29  1  0  0  0  0
  7 64  1  0  0  0  0
  8 28  1  0  0  0  0
  8 78  1  0  0  0  0
  8 79  1  0  0  0  0
  9 10  1  0  0  0  0
  9 11  1  0  0  0  0
  9 13  1  0  0  0  0
  9 37  1  0  0  0  0
 10 12  1  0  0  0  0
 10 38  1  0  0  0  0
 11 15  1  0  0  0  0
 11 39  1  0  0  0  0
 11 40  1  0  0  0  0
 12 14  1  0  0  0  0
 12 41  1  0  0  0  0
 12 42  1  0  0  0  0
 14 17  1  0  0  0  0
 14 43  1  0  0  0  0
 15 16  1  0  0  0  0
 15 44  1  0  0  0  0
 15 45  1  0  0  0  0
 16 18  1  0  0  0  0
 16 46  1  0  0  0  0
 16 47  1  0  0  0  0
 17 20  1  0  0  0  0
 17 48  1  0  0  0  0
 17 49  1  0  0  0  0
 18 19  1  0  0  0  0
 18 50  1  0  0  0  0
 18 51  1  0  0  0  0
 19 23  1  0  0  0  0
 19 52  1  0  0  0  0
 19 53  1  0  0  0  0
 20 24  2  3  0  0  0
 20 54  1  0  0  0  0
 21 22  1  0  0  0  0
 22 25  1  0  0  0  0
 22 55  1  0  0  0  0
 23 56  1  0  0  0  0
 23 57  1  0  0  0  0
 23 58  1  0  0  0  0
 24 26  1  0  0  0  0
 24 59  1  0  0  0  0
 25 28  1  0  0  0  0
 25 60  1  0  0  0  0
 25 61  1  0  0  0  0
 26 27  1  0  0  0  0
 26 62  1  0  0  0  0
 26 63  1  0  0  0  0
 27 30  2  3  0  0  0
 27 65  1  0  0  0  0
 29 34  1  0  0  0  0
 30 31  1  0  0  0  0
 30 66  1  0  0  0  0
 31 32  1  0  0  0  0
 31 67  1  0  0  0  0
 31 68  1  0  0  0  0
 32 33  1  0  0  0  0
 32 69  1  0  0  0  0
 32 70  1  0  0  0  0
 33 35  1  0  0  0  0
 33 71  1  0  0  0  0
 33 72  1  0  0  0  0
 34 73  1  0  0  0  0
 34 74  1  0  0  0  0
 34 75  1  0  0  0  0
 35 36  1  0  0  0  0
 35 76  1  0  0  0  0
 35 77  1  0  0  0  0
 36 80  1  0  0  0  0
 36 81  1  0  0  0  0
 36 82  1  0  0  0  0
M  END
> <PUBCHEM_COMPOUND_CID>
125669

> <PUBCHEM_COMPOUND_CANONICALIZED>
1

> <PUBCHEM_CACTVS_COMPLEXITY>
748

> <PUBCHEM_CACTVS_HBOND_ACCEPTOR>
6

> <PUBCHEM_CACTVS_HBOND_DONOR>
2

> <PUBCHEM_CACTVS_ROTATABLE_BOND>
21

> <PUBCHEM_CACTVS_SUBSKEYS>
AAADcfB7OAAAAAAAAAAAAAAAAABIAAAAAAAAAAAAAAAAAAAAAAAAHgAQAAAADTzhgAYCCALABACIACHSGAAAAAAgAAAICIGIAAgCAB4AwSAHAAAF9gCYAAOv7OzOAAAAAAAAAAAAAAAAAAAAAAAAAAAAAA==

> <PUBCHEM_IUPAC_OPENEYE_NAME>
1-[(3-hexyl-4-oxo-oxetan-2-yl)methyl]dodeca-3,6-dienyl 2-acetamido-4-amino-4-oxo-butanoate

> <PUBCHEM_IUPAC_CAS_NAME>
2-acetamido-4-amino-4-oxobutanoic acid 1-(3-hexyl-4-oxo-2-oxetanyl)trideca-4,7-dien-2-yl ester

> <PUBCHEM_IUPAC_NAME_MARKUP>
1-(3-hexyl-4-oxooxetan-2-yl)trideca-4,7-dien-2-yl 2-acetamido-4-amino-4-oxobutanoate

> <PUBCHEM_IUPAC_NAME>
1-(3-hexyl-4-oxooxetan-2-yl)trideca-4,7-dien-2-yl 2-acetamido-4-amino-4-oxobutanoate

> <PUBCHEM_IUPAC_SYSTEMATIC_NAME>
1-(3-hexyl-4-oxidanylidene-oxetan-2-yl)trideca-4,7-dien-2-yl 2-acetamido-4-azanyl-4-oxidanylidene-butanoate

> <PUBCHEM_IUPAC_TRADITIONAL_NAME>
2-acetamido-4-amino-4-keto-butyric acid 1-[(3-hexyl-4-keto-oxetan-2-yl)methyl]dodeca-3,6-dienyl ester

> <PUBCHEM_IUPAC_INCHI>
InChI=1S/C28H46N2O6/c1-4-6-8-10-11-12-13-14-15-17-22(35-28(34)24(20-26(29)32)30-21(3)31)19-25-23(27(33)36-25)18-16-9-7-5-2/h11-12,14-15,22-25H,4-10,13,16-20H2,1-3H3,(H2,29,32)(H,30,31)

> <PUBCHEM_IUPAC_INCHIKEY>
JKNGELGDDBUFHG-UHFFFAOYSA-N

> <PUBCHEM_XLOGP3_AA>
5.9

> <PUBCHEM_EXACT_MASS>
506.33558719

> <PUBCHEM_MOLECULAR_FORMULA>
C28H46N2O6

> <PUBCHEM_MOLECULAR_WEIGHT>
506.7

> <PUBCHEM_OPENEYE_CAN_SMILES>
CCCCCCC1C(OC1=O)CC(CC=CCC=CCCCCC)OC(=O)C(CC(=O)N)NC(=O)C

> <PUBCHEM_OPENEYE_ISO_SMILES>
CCCCCCC1C(OC1=O)CC(CC=CCC=CCCCCC)OC(=O)C(CC(=O)N)NC(=O)C

> <PUBCHEM_CACTVS_TPSA>
125

> <PUBCHEM_MONOISOTOPIC_WEIGHT>
506.33558719

> <PUBCHEM_TOTAL_CHARGE>
0

> <PUBCHEM_HEAVY_ATOM_COUNT>
36

> <PUBCHEM_ATOM_DEF_STEREO_COUNT>
0

> <PUBCHEM_ATOM_UDEF_STEREO_COUNT>
4

> <PUBCHEM_BOND_DEF_STEREO_COUNT>
0

> <PUBCHEM_BOND_UDEF_STEREO_COUNT>
2

> <PUBCHEM_ISOTOPIC_ATOM_COUNT>
0

> <PUBCHEM_COMPONENT_COUNT>
1

> <PUBCHEM_CACTVS_TAUTO_COUNT>
12

> <PUBCHEM_COORDINATE_TYPE>
1
5
255

> <PUBCHEM_BONDANNOTATIONS>
10  38  3
14  43  3
20  24  1
22  55  3
27  30  1
9  37  3

$$$$
