44257114
  -OEChem-02222212422D

 51 54  0     1  0  0  0  0  0999 V2000
    6.0682    1.9796    0.0000 O   0  0  0  0  0  0  0  0  0  0  0  0
    7.8003    3.9796    0.0000 O   0  0  0  0  0  0  0  0  0  0  0  0
    4.3198    5.0142    0.0000 O   0  0  0  0  0  0  0  0  0  0  0  0
    8.6663   -0.5204    0.0000 O   0  0  0  0  0  0  0  0  0  0  0  0
    2.5381    1.9555    0.0000 O   0  0  0  0  0  0  0  0  0  0  0  0
   10.3984    2.4796    0.0000 O   0  0  0  0  0  0  0  0  0  0  0  0
   10.3984    0.4796    0.0000 O   0  0  0  0  0  0  0  0  0  0  0  0
    6.9343   -0.5204    0.0000 O   0  0  0  0  0  0  0  0  0  0  0  0
    9.5323   -4.0204    0.0000 O   0  0  0  0  0  0  0  0  0  0  0  0
    6.0682   -4.0204    0.0000 O   0  0  0  0  0  0  0  0  0  0  0  0
    7.8003   -5.0204    0.0000 O   0  0  0  0  0  0  0  0  0  0  0  0
    6.9343    3.4796    0.0000 C   0  0  2  0  0  0  0  0  0  0  0  0
    6.9343    2.4796    0.0000 C   0  0  1  0  0  0  0  0  0  0  0  0
    6.0682    3.9796    0.0000 C   0  0  0  0  0  0  0  0  0  0  0  0
    5.2022    3.4796    0.0000 C   0  0  0  0  0  0  0  0  0  0  0  0
    7.8003    1.9796    0.0000 C   0  0  0  0  0  0  0  0  0  0  0  0
    5.2022    2.4796    0.0000 C   0  0  0  0  0  0  0  0  0  0  0  0
    4.3083    4.0143    0.0000 C   0  0  0  0  0  0  0  0  0  0  0  0
    7.8003    0.9796    0.0000 C   0  0  0  0  0  0  0  0  0  0  0  0
    4.3083    1.9450    0.0000 C   0  0  0  0  0  0  0  0  0  0  0  0
    8.6663    2.4796    0.0000 C   0  0  0  0  0  0  0  0  0  0  0  0
    3.4022    3.5004    0.0000 C   0  0  0  0  0  0  0  0  0  0  0  0
    3.4022    2.4588    0.0000 C   0  0  0  0  0  0  0  0  0  0  0  0
    8.6663    0.4796    0.0000 C   0  0  0  0  0  0  0  0  0  0  0  0
    9.5323    1.9796    0.0000 C   0  0  0  0  0  0  0  0  0  0  0  0
    9.5323    0.9796    0.0000 C   0  0  0  0  0  0  0  0  0  0  0  0
    7.8003   -1.0204    0.0000 C   0  0  0  0  0  0  0  0  0  0  0  0
    7.8003   -2.0204    0.0000 C   0  0  0  0  0  0  0  0  0  0  0  0
    6.9343   -2.5204    0.0000 C   0  0  0  0  0  0  0  0  0  0  0  0
    8.6663   -2.5204    0.0000 C   0  0  0  0  0  0  0  0  0  0  0  0
    8.6663   -3.5204    0.0000 C   0  0  0  0  0  0  0  0  0  0  0  0
    6.9343   -3.5204    0.0000 C   0  0  0  0  0  0  0  0  0  0  0  0
    7.8003   -4.0204    0.0000 C   0  0  0  0  0  0  0  0  0  0  0  0
    6.9343    4.0996    0.0000 H   0  0  0  0  0  0  0  0  0  0  0  0
    6.9343    1.8596    0.0000 H   0  0  0  0  0  0  0  0  0  0  0  0
    6.4668    4.4546    0.0000 H   0  0  0  0  0  0  0  0  0  0  0  0
    5.6697    4.4546    0.0000 H   0  0  0  0  0  0  0  0  0  0  0  0
    7.2634    0.6696    0.0000 H   0  0  0  0  0  0  0  0  0  0  0  0
    4.3154    1.3250    0.0000 H   0  0  0  0  0  0  0  0  0  0  0  0
    8.6663    3.0996    0.0000 H   0  0  0  0  0  0  0  0  0  0  0  0
    7.8003    4.5996    0.0000 H   0  0  0  0  0  0  0  0  0  0  0  0
    2.8665    3.8125    0.0000 H   0  0  0  0  0  0  0  0  0  0  0  0
    3.7865    5.3304    0.0000 H   0  0  0  0  0  0  0  0  0  0  0  0
    2.0000    2.2634    0.0000 H   0  0  0  0  0  0  0  0  0  0  0  0
   10.3984    3.0996    0.0000 H   0  0  0  0  0  0  0  0  0  0  0  0
   10.9353    0.7896    0.0000 H   0  0  0  0  0  0  0  0  0  0  0  0
    6.3973   -2.2104    0.0000 H   0  0  0  0  0  0  0  0  0  0  0  0
    9.2033   -2.2104    0.0000 H   0  0  0  0  0  0  0  0  0  0  0  0
   10.0693   -3.7104    0.0000 H   0  0  0  0  0  0  0  0  0  0  0  0
    5.5313   -3.7104    0.0000 H   0  0  0  0  0  0  0  0  0  0  0  0
    8.3372   -5.3304    0.0000 H   0  0  0  0  0  0  0  0  0  0  0  0
  1 13  1  0  0  0  0
  1 17  1  0  0  0  0
 12  2  1  6  0  0  0
  2 41  1  0  0  0  0
  3 18  1  0  0  0  0
  3 43  1  0  0  0  0
  4 24  1  0  0  0  0
  4 27  1  0  0  0  0
  5 23  1  0  0  0  0
  5 44  1  0  0  0  0
  6 25  1  0  0  0  0
  6 45  1  0  0  0  0
  7 26  1  0  0  0  0
  7 46  1  0  0  0  0
  8 27  2  0  0  0  0
  9 31  1  0  0  0  0
  9 49  1  0  0  0  0
 10 32  1  0  0  0  0
 10 50  1  0  0  0  0
 11 33  1  0  0  0  0
 11 51  1  0  0  0  0
 12 13  1  0  0  0  0
 12 14  1  0  0  0  0
 12 34  1  0  0  0  0
 13 16  1  1  0  0  0
 13 35  1  0  0  0  0
 14 15  1  0  0  0  0
 14 36  1  0  0  0  0
 14 37  1  0  0  0  0
 15 17  1  0  0  0  0
 15 18  2  0  0  0  0
 16 19  1  0  0  0  0
 16 21  2  0  0  0  0
 17 20  2  0  0  0  0
 18 22  1  0  0  0  0
 19 24  2  0  0  0  0
 19 38  1  0  0  0  0
 20 23  1  0  0  0  0
 20 39  1  0  0  0  0
 21 25  1  0  0  0  0
 21 40  1  0  0  0  0
 22 23  2  0  0  0  0
 22 42  1  0  0  0  0
 24 26  1  0  0  0  0
 25 26  2  0  0  0  0
 27 28  1  0  0  0  0
 28 29  2  0  0  0  0
 28 30  1  0  0  0  0
 29 32  1  0  0  0  0
 29 47  1  0  0  0  0
 30 31  2  0  0  0  0
 30 48  1  0  0  0  0
 31 33  1  0  0  0  0
 32 33  2  0  0  0  0
M  END
> <PUBCHEM_COMPOUND_CID>
44257114

> <PUBCHEM_COMPOUND_CANONICALIZED>
1

> <PUBCHEM_CACTVS_COMPLEXITY>
679

> <PUBCHEM_CACTVS_HBOND_ACCEPTOR>
11

> <PUBCHEM_CACTVS_HBOND_DONOR>
8

> <PUBCHEM_CACTVS_ROTATABLE_BOND>
4

> <PUBCHEM_CACTVS_SUBSKEYS>
AAADceB4PAAAAAAAAAAAAAAAAAAAAAAAAAA0YMEAAAAAAACRUAAAGgAACAAADBSgmAIwDoAABgCIAiDSCAACCAAkIAAAiAEGiMgNNzKGNRqCeyOlwBULuYfK7PzOIAABCAAIQABAAAIQABCAAAAAAAAAAA==

> <PUBCHEM_IUPAC_OPENEYE_NAME>
[2,3-dihydroxy-5-[(2R,3S)-3,5,7-trihydroxychroman-2-yl]phenyl] 3,4,5-trihydroxybenzoate

> <PUBCHEM_IUPAC_CAS_NAME>
3,4,5-trihydroxybenzoic acid [2,3-dihydroxy-5-[(2R,3S)-3,5,7-trihydroxy-3,4-dihydro-2H-1-benzopyran-2-yl]phenyl] ester

> <PUBCHEM_IUPAC_NAME_MARKUP>
[2,3-dihydroxy-5-[(2<I>R</I>,3<I>S</I>)-3,5,7-trihydroxy-3,4-dihydro-2<I>H</I>-chromen-2-yl]phenyl] 3,4,5-trihydroxybenzoate

> <PUBCHEM_IUPAC_NAME>
[2,3-dihydroxy-5-[(2R,3S)-3,5,7-trihydroxy-3,4-dihydro-2H-chromen-2-yl]phenyl] 3,4,5-trihydroxybenzoate

> <PUBCHEM_IUPAC_SYSTEMATIC_NAME>
[2,3-bis(oxidanyl)-5-[(2R,3S)-3,5,7-tris(oxidanyl)-3,4-dihydro-2H-chromen-2-yl]phenyl] 3,4,5-tris(oxidanyl)benzoate

> <PUBCHEM_IUPAC_TRADITIONAL_NAME>
3,4,5-trihydroxybenzoic acid [2,3-dihydroxy-5-[(2R,3S)-3,5,7-trihydroxychroman-2-yl]phenyl] ester

> <PUBCHEM_IUPAC_INCHI>
InChI=1S/C22H18O11/c23-10-5-12(24)11-7-16(28)21(32-17(11)6-10)8-1-15(27)20(30)18(4-8)33-22(31)9-2-13(25)19(29)14(26)3-9/h1-6,16,21,23-30H,7H2/t16-,21+/m0/s1

> <PUBCHEM_IUPAC_INCHIKEY>
CCCILYAHJRZUQN-HRAATJIYSA-N

> <PUBCHEM_XLOGP3>
0.7

> <PUBCHEM_EXACT_MASS>
458.08491139

> <PUBCHEM_MOLECULAR_FORMULA>
C22H18O11

> <PUBCHEM_MOLECULAR_WEIGHT>
458.4

> <PUBCHEM_OPENEYE_CAN_SMILES>
C1C(C(OC2=CC(=CC(=C21)O)O)C3=CC(=C(C(=C3)OC(=O)C4=CC(=C(C(=C4)O)O)O)O)O)O

> <PUBCHEM_OPENEYE_ISO_SMILES>
C1[C@@H]([C@H](OC2=CC(=CC(=C21)O)O)C3=CC(=C(C(=C3)OC(=O)C4=CC(=C(C(=C4)O)O)O)O)O)O

> <PUBCHEM_CACTVS_TPSA>
197

> <PUBCHEM_MONOISOTOPIC_WEIGHT>
458.08491139

> <PUBCHEM_TOTAL_CHARGE>
0

> <PUBCHEM_HEAVY_ATOM_COUNT>
33

> <PUBCHEM_ATOM_DEF_STEREO_COUNT>
2

> <PUBCHEM_ATOM_UDEF_STEREO_COUNT>
0

> <PUBCHEM_BOND_DEF_STEREO_COUNT>
0

> <PUBCHEM_BOND_UDEF_STEREO_COUNT>
0

> <PUBCHEM_ISOTOPIC_ATOM_COUNT>
0

> <PUBCHEM_COMPONENT_COUNT>
1

> <PUBCHEM_CACTVS_TAUTO_COUNT>
-1

> <PUBCHEM_COORDINATE_TYPE>
1
5
255

> <PUBCHEM_BONDANNOTATIONS>
13  16  5
15  17  8
15  18  8
16  19  8
16  21  8
17  20  8
18  22  8
19  24  8
12  2  6
20  23  8
21  25  8
22  23  8
24  26  8
25  26  8
28  29  8
28  30  8
29  32  8
30  31  8
31  33  8
32  33  8

$$$$
