6474788
  -OEChem-02222212212D

 53 56  0     1  0  0  0  0  0999 V2000
    6.0682   -2.1550    0.0000 O   0  0  0  0  0  0  0  0  0  0  0  0
    7.8003   -0.1550    0.0000 O   0  0  0  0  0  0  0  0  0  0  0  0
    4.3198    0.8796    0.0000 O   0  0  0  0  0  0  0  0  0  0  0  0
    2.5381   -2.1792    0.0000 O   0  0  0  0  0  0  0  0  0  0  0  0
   10.3984   -1.6550    0.0000 O   0  0  0  0  0  0  0  0  0  0  0  0
    8.6663   -4.6550    0.0000 O   0  0  0  0  0  0  0  0  0  0  0  0
   10.3984   -3.6550    0.0000 O   0  0  0  0  0  0  0  0  0  0  0  0
    6.9343    1.3450    0.0000 O   0  0  0  0  0  0  0  0  0  0  0  0
   12.1304    4.3450    0.0000 O   0  0  0  0  0  0  0  0  0  0  0  0
    6.9343   -0.6550    0.0000 C   0  0  1  0  0  0  0  0  0  0  0  0
    6.9343   -1.6550    0.0000 C   0  0  1  0  0  0  0  0  0  0  0  0
    6.0682   -0.1550    0.0000 C   0  0  0  0  0  0  0  0  0  0  0  0
    5.2022   -0.6550    0.0000 C   0  0  0  0  0  0  0  0  0  0  0  0
    7.8003   -2.1550    0.0000 C   0  0  0  0  0  0  0  0  0  0  0  0
    5.2022   -1.6550    0.0000 C   0  0  0  0  0  0  0  0  0  0  0  0
    4.3083   -0.1203    0.0000 C   0  0  0  0  0  0  0  0  0  0  0  0
    4.3083   -2.1897    0.0000 C   0  0  0  0  0  0  0  0  0  0  0  0
    7.8003   -3.1550    0.0000 C   0  0  0  0  0  0  0  0  0  0  0  0
    8.6663   -1.6550    0.0000 C   0  0  0  0  0  0  0  0  0  0  0  0
    3.4022   -0.6342    0.0000 C   0  0  0  0  0  0  0  0  0  0  0  0
    3.4022   -1.6758    0.0000 C   0  0  0  0  0  0  0  0  0  0  0  0
    9.5323   -2.1550    0.0000 C   0  0  0  0  0  0  0  0  0  0  0  0
    8.6663   -3.6550    0.0000 C   0  0  0  0  0  0  0  0  0  0  0  0
    7.8003    0.8450    0.0000 C   0  0  0  0  0  0  0  0  0  0  0  0
    9.5323   -3.1550    0.0000 C   0  0  0  0  0  0  0  0  0  0  0  0
    8.6663    1.3450    0.0000 C   0  0  0  0  0  0  0  0  0  0  0  0
    8.6663    2.3450    0.0000 C   0  0  0  0  0  0  0  0  0  0  0  0
    9.5323    2.8450    0.0000 C   0  0  0  0  0  0  0  0  0  0  0  0
    9.5323    3.8450    0.0000 C   0  0  0  0  0  0  0  0  0  0  0  0
   10.3984    2.3450    0.0000 C   0  0  0  0  0  0  0  0  0  0  0  0
   10.3984    4.3450    0.0000 C   0  0  0  0  0  0  0  0  0  0  0  0
   11.2644    2.8450    0.0000 C   0  0  0  0  0  0  0  0  0  0  0  0
   11.2644    3.8450    0.0000 C   0  0  0  0  0  0  0  0  0  0  0  0
    6.9343   -0.0350    0.0000 H   0  0  0  0  0  0  0  0  0  0  0  0
    6.9343   -2.2750    0.0000 H   0  0  0  0  0  0  0  0  0  0  0  0
    6.4668    0.3199    0.0000 H   0  0  0  0  0  0  0  0  0  0  0  0
    5.6697    0.3199    0.0000 H   0  0  0  0  0  0  0  0  0  0  0  0
    4.3154   -2.8096    0.0000 H   0  0  0  0  0  0  0  0  0  0  0  0
    7.2634   -3.4650    0.0000 H   0  0  0  0  0  0  0  0  0  0  0  0
    8.6663   -1.0350    0.0000 H   0  0  0  0  0  0  0  0  0  0  0  0
    2.8665   -0.3221    0.0000 H   0  0  0  0  0  0  0  0  0  0  0  0
    3.7865    1.1958    0.0000 H   0  0  0  0  0  0  0  0  0  0  0  0
    9.2033    1.0350    0.0000 H   0  0  0  0  0  0  0  0  0  0  0  0
    2.0000   -1.8712    0.0000 H   0  0  0  0  0  0  0  0  0  0  0  0
   10.9353   -1.9650    0.0000 H   0  0  0  0  0  0  0  0  0  0  0  0
    8.1294   -4.9650    0.0000 H   0  0  0  0  0  0  0  0  0  0  0  0
   10.3984   -4.2750    0.0000 H   0  0  0  0  0  0  0  0  0  0  0  0
    8.1294    2.6550    0.0000 H   0  0  0  0  0  0  0  0  0  0  0  0
    8.9954    4.1550    0.0000 H   0  0  0  0  0  0  0  0  0  0  0  0
   10.3984    1.7250    0.0000 H   0  0  0  0  0  0  0  0  0  0  0  0
   10.3984    4.9650    0.0000 H   0  0  0  0  0  0  0  0  0  0  0  0
   11.8013    2.5350    0.0000 H   0  0  0  0  0  0  0  0  0  0  0  0
   12.1304    4.9650    0.0000 H   0  0  0  0  0  0  0  0  0  0  0  0
  1 11  1  0  0  0  0
  1 15  1  0  0  0  0
 10  2  1  1  0  0  0
  2 24  1  0  0  0  0
  3 16  1  0  0  0  0
  3 42  1  0  0  0  0
  4 21  1  0  0  0  0
  4 44  1  0  0  0  0
  5 22  1  0  0  0  0
  5 45  1  0  0  0  0
  6 23  1  0  0  0  0
  6 46  1  0  0  0  0
  7 25  1  0  0  0  0
  7 47  1  0  0  0  0
  8 24  2  0  0  0  0
  9 33  1  0  0  0  0
  9 53  1  0  0  0  0
 10 11  1  0  0  0  0
 10 12  1  0  0  0  0
 10 34  1  0  0  0  0
 11 14  1  1  0  0  0
 11 35  1  0  0  0  0
 12 13  1  0  0  0  0
 12 36  1  0  0  0  0
 12 37  1  0  0  0  0
 13 15  1  0  0  0  0
 13 16  2  0  0  0  0
 14 18  2  0  0  0  0
 14 19  1  0  0  0  0
 15 17  2  0  0  0  0
 16 20  1  0  0  0  0
 17 21  1  0  0  0  0
 17 38  1  0  0  0  0
 18 23  1  0  0  0  0
 18 39  1  0  0  0  0
 19 22  2  0  0  0  0
 19 40  1  0  0  0  0
 20 21  2  0  0  0  0
 20 41  1  0  0  0  0
 22 25  1  0  0  0  0
 23 25  2  0  0  0  0
 24 26  1  0  0  0  0
 26 27  2  0  0  0  0
 26 43  1  0  0  0  0
 27 28  1  0  0  0  0
 27 48  1  0  0  0  0
 28 29  2  0  0  0  0
 28 30  1  0  0  0  0
 29 31  1  0  0  0  0
 29 49  1  0  0  0  0
 30 32  2  0  0  0  0
 30 50  1  0  0  0  0
 31 33  2  0  0  0  0
 31 51  1  0  0  0  0
 32 33  1  0  0  0  0
 32 52  1  0  0  0  0
M  END
> <PUBCHEM_COMPOUND_CID>
6474788

> <PUBCHEM_COMPOUND_CANONICALIZED>
1

> <PUBCHEM_CACTVS_COMPLEXITY>
679

> <PUBCHEM_CACTVS_HBOND_ACCEPTOR>
9

> <PUBCHEM_CACTVS_HBOND_DONOR>
6

> <PUBCHEM_CACTVS_ROTATABLE_BOND>
5

> <PUBCHEM_CACTVS_SUBSKEYS>
AAADceB4PAAAAAAAAAAAAAAAAAAAAAAAAAA0YMEAAAAAAACRUAAAGgAACAAADBSgmAIwDoAABgCIAiDSCAACCAAgIAAIiAAGiMgNJyKGMRqCeCGlwBULuYfA4PwOIAABCAAIQABAAAIQABCAAAAAAAAAAA==

> <PUBCHEM_IUPAC_OPENEYE_NAME>
[(2R,3R)-5,7-dihydroxy-2-(3,4,5-trihydroxyphenyl)chroman-3-yl] (E)-3-(4-hydroxyphenyl)prop-2-enoate

> <PUBCHEM_IUPAC_CAS_NAME>
(E)-3-(4-hydroxyphenyl)-2-propenoic acid [(2R,3R)-5,7-dihydroxy-2-(3,4,5-trihydroxyphenyl)-3,4-dihydro-2H-1-benzopyran-3-yl] ester

> <PUBCHEM_IUPAC_NAME_MARKUP>
[(2<I>R</I>,3<I>R</I>)-5,7-dihydroxy-2-(3,4,5-trihydroxyphenyl)-3,4-dihydro-2<I>H</I>-chromen-3-yl] (<I>E</I>)-3-(4-hydroxyphenyl)prop-2-enoate

> <PUBCHEM_IUPAC_NAME>
[(2R,3R)-5,7-dihydroxy-2-(3,4,5-trihydroxyphenyl)-3,4-dihydro-2H-chromen-3-yl] (E)-3-(4-hydroxyphenyl)prop-2-enoate

> <PUBCHEM_IUPAC_SYSTEMATIC_NAME>
[(2R,3R)-5,7-bis(oxidanyl)-2-[3,4,5-tris(oxidanyl)phenyl]-3,4-dihydro-2H-chromen-3-yl] (E)-3-(4-hydroxyphenyl)prop-2-enoate

> <PUBCHEM_IUPAC_TRADITIONAL_NAME>
(E)-3-(4-hydroxyphenyl)acrylic acid [(2R,3R)-5,7-dihydroxy-2-(3,4,5-trihydroxyphenyl)chroman-3-yl] ester

> <PUBCHEM_IUPAC_INCHI>
InChI=1S/C24H20O9/c25-14-4-1-12(2-5-14)3-6-22(30)32-21-11-16-17(27)9-15(26)10-20(16)33-24(21)13-7-18(28)23(31)19(29)8-13/h1-10,21,24-29,31H,11H2/b6-3+/t21-,24-/m1/s1

> <PUBCHEM_IUPAC_INCHIKEY>
HKPGWUPXXPIOAN-XMTAIGAMSA-N

> <PUBCHEM_XLOGP3>
2.3

> <PUBCHEM_EXACT_MASS>
452.11073221

> <PUBCHEM_MOLECULAR_FORMULA>
C24H20O9

> <PUBCHEM_MOLECULAR_WEIGHT>
452.4

> <PUBCHEM_OPENEYE_CAN_SMILES>
C1C(C(OC2=CC(=CC(=C21)O)O)C3=CC(=C(C(=C3)O)O)O)OC(=O)C=CC4=CC=C(C=C4)O

> <PUBCHEM_OPENEYE_ISO_SMILES>
C1[C@H]([C@H](OC2=CC(=CC(=C21)O)O)C3=CC(=C(C(=C3)O)O)O)OC(=O)/C=C/C4=CC=C(C=C4)O

> <PUBCHEM_CACTVS_TPSA>
157

> <PUBCHEM_MONOISOTOPIC_WEIGHT>
452.11073221

> <PUBCHEM_TOTAL_CHARGE>
0

> <PUBCHEM_HEAVY_ATOM_COUNT>
33

> <PUBCHEM_ATOM_DEF_STEREO_COUNT>
2

> <PUBCHEM_ATOM_UDEF_STEREO_COUNT>
0

> <PUBCHEM_BOND_DEF_STEREO_COUNT>
1

> <PUBCHEM_BOND_UDEF_STEREO_COUNT>
0

> <PUBCHEM_ISOTOPIC_ATOM_COUNT>
0

> <PUBCHEM_COMPONENT_COUNT>
1

> <PUBCHEM_CACTVS_TAUTO_COUNT>
-1

> <PUBCHEM_COORDINATE_TYPE>
1
5
255

> <PUBCHEM_BONDANNOTATIONS>
11  14  5
13  15  8
13  16  8
14  18  8
14  19  8
15  17  8
16  20  8
17  21  8
18  23  8
19  22  8
10  2  5
20  21  8
22  25  8
23  25  8
28  29  8
28  30  8
29  31  8
30  32  8
31  33  8
32  33  8

$$$$
