102180242
  -OEChem-02232223362D

113119  0     1  0  0  0  0  0999 V2000
   13.8509   -1.0231    0.0000 O   0  0  0  0  0  0  0  0  0  0  0  0
    7.7227    2.5077    0.0000 O   0  0  0  0  0  0  0  0  0  0  0  0
   12.9848   -3.5231    0.0000 O   0  0  0  0  0  0  0  0  0  0  0  0
   11.2528   -3.5231    0.0000 O   0  0  0  0  0  0  0  0  0  0  0  0
    5.9945    3.5144    0.0000 O   0  0  0  0  0  0  0  0  0  0  0  0
    4.2625    3.5211    0.0000 O   0  0  0  0  0  0  0  0  0  0  0  0
   14.7169   -3.5231    0.0000 O   0  0  0  0  0  0  0  0  0  0  0  0
   14.7169    0.4769    0.0000 O   0  0  0  0  0  0  0  0  0  0  0  0
    5.9829    0.5144    0.0000 O   0  0  0  0  0  0  0  0  0  0  0  0
   16.4489   -2.5231    0.0000 O   0  0  0  0  0  0  0  0  0  0  0  0
    9.4547    2.5010    0.0000 O   0  0  0  0  0  0  0  0  0  0  0  0
    7.7111   -0.4923    0.0000 O   0  0  0  0  0  0  0  0  0  0  0  0
   16.4489   -0.5231    0.0000 O   0  0  0  0  0  0  0  0  0  0  0  0
    9.4470    0.5011    0.0000 O   0  0  0  0  0  0  0  0  0  0  0  0
   12.9848   -5.5231    0.0000 O   0  0  0  0  0  0  0  0  0  0  0  0
    6.0022    5.5144    0.0000 O   0  0  0  0  0  0  0  0  0  0  0  0
   11.2528   -6.5231    0.0000 O   0  0  0  0  0  0  0  0  0  0  0  0
    4.2740    6.5210    0.0000 O   0  0  0  0  0  0  0  0  0  0  0  0
    9.5207   -5.5231    0.0000 O   0  0  0  0  0  0  0  0  0  0  0  0
    2.5381    5.5277    0.0000 O   0  0  0  0  0  0  0  0  0  0  0  0
   12.9848    2.4769    0.0000 O   0  0  0  0  0  0  0  0  0  0  0  0
   12.9848   -0.5231    0.0000 O   0  0  0  0  0  0  0  0  0  0  0  0
   11.2364   -0.5577    0.0000 O   0  0  0  0  0  0  0  0  0  0  0  0
   17.3150    3.9769    0.0000 O   0  0  0  0  0  0  0  0  0  0  0  0
   13.8509   -2.0231    0.0000 C   0  0  1  0  0  0  0  0  0  0  0  0
    6.8547    2.0111    0.0000 C   0  0  1  0  0  0  0  0  0  0  0  0
   14.7169   -2.5231    0.0000 C   0  0  2  0  0  0  0  0  0  0  0  0
    6.8509    1.0111    0.0000 C   0  0  2  0  0  0  0  0  0  0  0  0
   15.5829   -2.0231    0.0000 C   0  0  1  0  0  0  0  0  0  0  0  0
    7.7150    0.5077    0.0000 C   0  0  1  0  0  0  0  0  0  0  0  0
   15.5829   -1.0231    0.0000 C   0  0  2  0  0  0  0  0  0  0  0  0
    8.5829    1.0044    0.0000 C   0  0  2  0  0  0  0  0  0  0  0  0
   12.1188   -5.0231    0.0000 C   0  0  1  0  0  0  0  0  0  0  0  0
   12.1188   -4.0231    0.0000 C   0  0  2  0  0  0  0  0  0  0  0  0
    5.1343    5.0177    0.0000 C   0  0  1  0  0  0  0  0  0  0  0  0
   11.2528   -5.5231    0.0000 C   0  0  1  0  0  0  0  0  0  0  0  0
    5.1304    4.0177    0.0000 C   0  0  2  0  0  0  0  0  0  0  0  0
    4.2702    5.5210    0.0000 C   0  0  1  0  0  0  0  0  0  0  0  0
   14.7169   -0.5231    0.0000 C   0  0  1  0  0  0  0  0  0  0  0  0
   10.3868   -5.0231    0.0000 C   0  0  2  0  0  0  0  0  0  0  0  0
    3.4022    5.0244    0.0000 C   0  0  2  0  0  0  0  0  0  0  0  0
    8.5868    2.0044    0.0000 C   0  0  1  0  0  0  0  0  0  0  0  0
   12.9848   -2.5231    0.0000 C   0  0  0  0  0  0  0  0  0  0  0  0
    5.9906    2.5144    0.0000 C   0  0  0  0  0  0  0  0  0  0  0  0
   10.3868   -4.0231    0.0000 C   0  0  2  0  0  0  0  0  0  0  0  0
    3.3984    4.0244    0.0000 C   0  0  2  0  0  0  0  0  0  0  0  0
    9.5207   -3.5231    0.0000 C   0  0  0  0  0  0  0  0  0  0  0  0
    2.5304    3.5277    0.0000 C   0  0  0  0  0  0  0  0  0  0  0  0
   13.8509    0.9769    0.0000 C   0  0  0  0  0  0  0  0  0  0  0  0
   10.3188    1.9977    0.0000 C   0  0  0  0  0  0  0  0  0  0  0  0
   12.1188    0.9769    0.0000 C   0  0  0  0  0  0  0  0  0  0  0  0
   12.9848    0.4769    0.0000 C   0  0  0  0  0  0  0  0  0  0  0  0
   13.8509    1.9769    0.0000 C   0  0  0  0  0  0  0  0  0  0  0  0
   12.1188    1.9769    0.0000 C   0  0  0  0  0  0  0  0  0  0  0  0
   11.2249    2.5116    0.0000 C   0  0  0  0  0  0  0  0  0  0  0  0
   10.3188    0.9561    0.0000 C   0  0  0  0  0  0  0  0  0  0  0  0
   11.2249    0.4422    0.0000 C   0  0  0  0  0  0  0  0  0  0  0  0
   14.7169    2.4769    0.0000 C   0  0  0  0  0  0  0  0  0  0  0  0
   14.7169    3.4769    0.0000 C   0  0  0  0  0  0  0  0  0  0  0  0
   15.5829    1.9769    0.0000 C   0  0  0  0  0  0  0  0  0  0  0  0
   15.5829    3.9769    0.0000 C   0  0  0  0  0  0  0  0  0  0  0  0
   16.4489    2.4769    0.0000 C   0  0  0  0  0  0  0  0  0  0  0  0
   16.4489    3.4769    0.0000 C   0  0  0  0  0  0  0  0  0  0  0  0
   13.3139   -1.7131    0.0000 H   0  0  0  0  0  0  0  0  0  0  0  0
    6.8571    2.6311    0.0000 H   0  0  0  0  0  0  0  0  0  0  0  0
   14.1800   -2.8331    0.0000 H   0  0  0  0  0  0  0  0  0  0  0  0
    6.8485    0.3911    0.0000 H   0  0  0  0  0  0  0  0  0  0  0  0
   15.5829   -2.6431    0.0000 H   0  0  0  0  0  0  0  0  0  0  0  0
    7.1768    0.1998    0.0000 H   0  0  0  0  0  0  0  0  0  0  0  0
   16.1199   -1.3331    0.0000 H   0  0  0  0  0  0  0  0  0  0  0  0
    8.5805    0.3844    0.0000 H   0  0  0  0  0  0  0  0  0  0  0  0
   12.1188   -5.6431    0.0000 H   0  0  0  0  0  0  0  0  0  0  0  0
   12.1188   -3.4031    0.0000 H   0  0  0  0  0  0  0  0  0  0  0  0
    5.6700    4.7056    0.0000 H   0  0  0  0  0  0  0  0  0  0  0  0
   10.7159   -5.8331    0.0000 H   0  0  0  0  0  0  0  0  0  0  0  0
    5.1280    3.3977    0.0000 H   0  0  0  0  0  0  0  0  0  0  0  0
    3.7344    5.8331    0.0000 H   0  0  0  0  0  0  0  0  0  0  0  0
   14.1800   -0.2131    0.0000 H   0  0  0  0  0  0  0  0  0  0  0  0
    9.8498   -4.7131    0.0000 H   0  0  0  0  0  0  0  0  0  0  0  0
    2.8641    4.7165    0.0000 H   0  0  0  0  0  0  0  0  0  0  0  0
    9.1225    1.6923    0.0000 H   0  0  0  0  0  0  0  0  0  0  0  0
   12.7728   -1.9405    0.0000 H   0  0  0  0  0  0  0  0  0  0  0  0
   12.3743   -2.6308    0.0000 H   0  0  0  0  0  0  0  0  0  0  0  0
    5.3805    2.6244    0.0000 H   0  0  0  0  0  0  0  0  0  0  0  0
    5.7763    1.9326    0.0000 H   0  0  0  0  0  0  0  0  0  0  0  0
   10.3868   -3.4031    0.0000 H   0  0  0  0  0  0  0  0  0  0  0  0
    3.3960    3.4044    0.0000 H   0  0  0  0  0  0  0  0  0  0  0  0
    9.8307   -2.9862    0.0000 H   0  0  0  0  0  0  0  0  0  0  0  0
    8.9838   -3.2131    0.0000 H   0  0  0  0  0  0  0  0  0  0  0  0
    9.2107   -4.0600    0.0000 H   0  0  0  0  0  0  0  0  0  0  0  0
    2.2225    4.0659    0.0000 H   0  0  0  0  0  0  0  0  0  0  0  0
    1.9923    3.2198    0.0000 H   0  0  0  0  0  0  0  0  0  0  0  0
    2.8384    2.9896    0.0000 H   0  0  0  0  0  0  0  0  0  0  0  0
   15.2538   -3.8331    0.0000 H   0  0  0  0  0  0  0  0  0  0  0  0
    5.4472    0.8265    0.0000 H   0  0  0  0  0  0  0  0  0  0  0  0
   16.9859   -2.2131    0.0000 H   0  0  0  0  0  0  0  0  0  0  0  0
    7.1730   -0.8002    0.0000 H   0  0  0  0  0  0  0  0  0  0  0  0
   16.4489    0.0969    0.0000 H   0  0  0  0  0  0  0  0  0  0  0  0
    9.4446   -0.1189    0.0000 H   0  0  0  0  0  0  0  0  0  0  0  0
   13.5218   -5.2131    0.0000 H   0  0  0  0  0  0  0  0  0  0  0  0
    6.0046    6.1344    0.0000 H   0  0  0  0  0  0  0  0  0  0  0  0
   10.7159   -6.8331    0.0000 H   0  0  0  0  0  0  0  0  0  0  0  0
    3.7383    6.8331    0.0000 H   0  0  0  0  0  0  0  0  0  0  0  0
    8.9838   -5.2131    0.0000 H   0  0  0  0  0  0  0  0  0  0  0  0
    2.0000    5.2198    0.0000 H   0  0  0  0  0  0  0  0  0  0  0  0
   11.2320    3.1315    0.0000 H   0  0  0  0  0  0  0  0  0  0  0  0
    9.7831    0.6440    0.0000 H   0  0  0  0  0  0  0  0  0  0  0  0
   14.1800    3.7869    0.0000 H   0  0  0  0  0  0  0  0  0  0  0  0
   15.5829    1.3569    0.0000 H   0  0  0  0  0  0  0  0  0  0  0  0
   10.7031   -0.8739    0.0000 H   0  0  0  0  0  0  0  0  0  0  0  0
   15.5829    4.5969    0.0000 H   0  0  0  0  0  0  0  0  0  0  0  0
   16.9859    2.1669    0.0000 H   0  0  0  0  0  0  0  0  0  0  0  0
   17.8519    3.6669    0.0000 H   0  0  0  0  0  0  0  0  0  0  0  0
  1 25  1  0  0  0  0
  1 39  1  0  0  0  0
  2 26  1  0  0  0  0
  2 42  1  0  0  0  0
 34  3  1  1  0  0  0
  3 43  1  0  0  0  0
  4 34  1  0  0  0  0
  4 45  1  0  0  0  0
 37  5  1  6  0  0  0
  5 44  1  0  0  0  0
  6 37  1  0  0  0  0
  6 46  1  0  0  0  0
 27  7  1  6  0  0  0
  7 94  1  0  0  0  0
 39  8  1  1  0  0  0
  8 49  1  0  0  0  0
 28  9  1  6  0  0  0
  9 95  1  0  0  0  0
 29 10  1  1  0  0  0
 10 96  1  0  0  0  0
 42 11  1  1  0  0  0
 11 50  1  0  0  0  0
 30 12  1  1  0  0  0
 12 97  1  0  0  0  0
 31 13  1  6  0  0  0
 13 98  1  0  0  0  0
 32 14  1  6  0  0  0
 14 99  1  0  0  0  0
 33 15  1  6  0  0  0
 15100  1  0  0  0  0
 35 16  1  1  0  0  0
 16101  1  0  0  0  0
 36 17  1  6  0  0  0
 17102  1  0  0  0  0
 38 18  1  1  0  0  0
 18103  1  0  0  0  0
 40 19  1  1  0  0  0
 19104  1  0  0  0  0
 41 20  1  6  0  0  0
 20105  1  0  0  0  0
 21 53  1  0  0  0  0
 21 54  1  0  0  0  0
 22 52  2  0  0  0  0
 23 57  1  0  0  0  0
 23110  1  0  0  0  0
 24 63  1  0  0  0  0
 24113  1  0  0  0  0
 25 27  1  0  0  0  0
 25 43  1  1  0  0  0
 25 64  1  0  0  0  0
 26 28  1  0  0  0  0
 26 44  1  1  0  0  0
 26 65  1  0  0  0  0
 27 29  1  0  0  0  0
 27 66  1  0  0  0  0
 28 30  1  0  0  0  0
 28 67  1  0  0  0  0
 29 31  1  0  0  0  0
 29 68  1  0  0  0  0
 30 32  1  0  0  0  0
 30 69  1  0  0  0  0
 31 39  1  0  0  0  0
 31 70  1  0  0  0  0
 32 42  1  0  0  0  0
 32 71  1  0  0  0  0
 33 34  1  0  0  0  0
 33 36  1  0  0  0  0
 33 72  1  0  0  0  0
 34 73  1  0  0  0  0
 35 37  1  0  0  0  0
 35 38  1  0  0  0  0
 35 74  1  0  0  0  0
 36 40  1  0  0  0  0
 36 75  1  0  0  0  0
 37 76  1  0  0  0  0
 38 41  1  0  0  0  0
 38 77  1  0  0  0  0
 39 78  1  0  0  0  0
 40 45  1  0  0  0  0
 40 79  1  0  0  0  0
 41 46  1  0  0  0  0
 41 80  1  0  0  0  0
 42 81  1  0  0  0  0
 43 82  1  0  0  0  0
 43 83  1  0  0  0  0
 44 84  1  0  0  0  0
 44 85  1  0  0  0  0
 45 47  1  6  0  0  0
 45 86  1  0  0  0  0
 46 48  1  1  0  0  0
 46 87  1  0  0  0  0
 47 88  1  0  0  0  0
 47 89  1  0  0  0  0
 47 90  1  0  0  0  0
 48 91  1  0  0  0  0
 48 92  1  0  0  0  0
 48 93  1  0  0  0  0
 49 52  1  0  0  0  0
 49 53  2  0  0  0  0
 50 55  1  0  0  0  0
 50 56  2  0  0  0  0
 51 52  1  0  0  0  0
 51 54  1  0  0  0  0
 51 57  2  0  0  0  0
 53 58  1  0  0  0  0
 54 55  2  0  0  0  0
 55106  1  0  0  0  0
 56 57  1  0  0  0  0
 56107  1  0  0  0  0
 58 59  2  0  0  0  0
 58 60  1  0  0  0  0
 59 61  1  0  0  0  0
 59108  1  0  0  0  0
 60 62  2  0  0  0  0
 60109  1  0  0  0  0
 61 63  2  0  0  0  0
 61111  1  0  0  0  0
 62 63  1  0  0  0  0
 62112  1  0  0  0  0
M  END
> <PUBCHEM_COMPOUND_CID>
102180242

> <PUBCHEM_COMPOUND_CANONICALIZED>
1

> <PUBCHEM_CACTVS_COMPLEXITY>
1570

> <PUBCHEM_CACTVS_HBOND_ACCEPTOR>
24

> <PUBCHEM_CACTVS_HBOND_DONOR>
14

> <PUBCHEM_CACTVS_ROTATABLE_BOND>
11

> <PUBCHEM_CACTVS_SUBSKEYS>
AAADcfB8PgAAAAAAAAAAAAAAAAAAAAAAAAA0aJEiAAAAAACBQAAAGgAACAAADBSwmAMyDoAABgCIAqBSAAICCAAkIAAIiAFGCMgdNzaGNR6ieWCl4BUPuQfI7KzOIAAACAAIAABAAAAQABAAAAAAAAAAAA==

> <PUBCHEM_IUPAC_OPENEYE_NAME>
5-hydroxy-2-(4-hydroxyphenyl)-3,7-bis[[(2S,3R,4S,5S,6R)-3,4,5-trihydroxy-6-[[(2R,3R,4R,5R,6S)-3,4,5-trihydroxy-6-methyl-tetrahydropyran-2-yl]oxymethyl]tetrahydropyran-2-yl]oxy]chromen-4-one

> <PUBCHEM_IUPAC_CAS_NAME>
5-hydroxy-2-(4-hydroxyphenyl)-3,7-bis[[(2S,3R,4S,5S,6R)-3,4,5-trihydroxy-6-[[(2R,3R,4R,5R,6S)-3,4,5-trihydroxy-6-methyl-2-oxanyl]oxymethyl]-2-oxanyl]oxy]-1-benzopyran-4-one

> <PUBCHEM_IUPAC_NAME_MARKUP>
5-hydroxy-2-(4-hydroxyphenyl)-3,7-bis[[(2<I>S</I>,3<I>R</I>,4<I>S</I>,5<I>S</I>,6<I>R</I>)-3,4,5-trihydroxy-6-[[(2<I>R</I>,3<I>R</I>,4<I>R</I>,5<I>R</I>,6<I>S</I>)-3,4,5-trihydroxy-6-methyloxan-2-yl]oxymethyl]oxan-2-yl]oxy]chromen-4-one

> <PUBCHEM_IUPAC_NAME>
5-hydroxy-2-(4-hydroxyphenyl)-3,7-bis[[(2S,3R,4S,5S,6R)-3,4,5-trihydroxy-6-[[(2R,3R,4R,5R,6S)-3,4,5-trihydroxy-6-methyloxan-2-yl]oxymethyl]oxan-2-yl]oxy]chromen-4-one

> <PUBCHEM_IUPAC_SYSTEMATIC_NAME>
2-(4-hydroxyphenyl)-3,7-bis[[(2S,3R,4S,5S,6R)-6-[[(2R,3R,4R,5R,6S)-6-methyl-3,4,5-tris(oxidanyl)oxan-2-yl]oxymethyl]-3,4,5-tris(oxidanyl)oxan-2-yl]oxy]-5-oxidanyl-chromen-4-one

> <PUBCHEM_IUPAC_TRADITIONAL_NAME>
5-hydroxy-2-(4-hydroxyphenyl)-3,7-bis[[(2S,3R,4S,5S,6R)-3,4,5-trihydroxy-6-[[(2R,3R,4R,5R,6S)-3,4,5-trihydroxy-6-methyl-tetrahydropyran-2-yl]oxymethyl]tetrahydropyran-2-yl]oxy]chromone

> <PUBCHEM_IUPAC_INCHI>
InChI=1S/C39H50O24/c1-11-21(42)26(47)30(51)36(57-11)55-9-18-23(44)28(49)32(53)38(61-18)59-15-7-16(41)20-17(8-15)60-34(13-3-5-14(40)6-4-13)35(25(20)46)63-39-33(54)29(50)24(45)19(62-39)10-56-37-31(52)27(48)22(43)12(2)58-37/h3-8,11-12,18-19,21-24,26-33,36-45,47-54H,9-10H2,1-2H3/t11-,12-,18+,19+,21-,22-,23+,24+,26+,27+,28-,29-,30+,31+,32+,33+,36+,37+,38+,39-/m0/s1

> <PUBCHEM_IUPAC_INCHIKEY>
ITLMMJYBBFFCGY-VVGDZOGRSA-N

> <PUBCHEM_XLOGP3_AA>
-4.4

> <PUBCHEM_EXACT_MASS>
902.26920246

> <PUBCHEM_MOLECULAR_FORMULA>
C39H50O24

> <PUBCHEM_MOLECULAR_WEIGHT>
902.8

> <PUBCHEM_OPENEYE_CAN_SMILES>
CC1C(C(C(C(O1)OCC2C(C(C(C(O2)OC3=CC(=C4C(=C3)OC(=C(C4=O)OC5C(C(C(C(O5)COC6C(C(C(C(O6)C)O)O)O)O)O)O)C7=CC=C(C=C7)O)O)O)O)O)O)O)O

> <PUBCHEM_OPENEYE_ISO_SMILES>
C[C@H]1[C@@H]([C@H]([C@H]([C@@H](O1)OC[C@@H]2[C@H]([C@@H]([C@H]([C@@H](O2)OC3=CC(=C4C(=C3)OC(=C(C4=O)O[C@H]5[C@@H]([C@H]([C@@H]([C@H](O5)CO[C@H]6[C@@H]([C@@H]([C@H]([C@@H](O6)C)O)O)O)O)O)O)C7=CC=C(C=C7)O)O)O)O)O)O)O)O

> <PUBCHEM_CACTVS_TPSA>
383

> <PUBCHEM_MONOISOTOPIC_WEIGHT>
902.26920246

> <PUBCHEM_TOTAL_CHARGE>
0

> <PUBCHEM_HEAVY_ATOM_COUNT>
63

> <PUBCHEM_ATOM_DEF_STEREO_COUNT>
20

> <PUBCHEM_ATOM_UDEF_STEREO_COUNT>
0

> <PUBCHEM_BOND_DEF_STEREO_COUNT>
0

> <PUBCHEM_BOND_UDEF_STEREO_COUNT>
0

> <PUBCHEM_ISOTOPIC_ATOM_COUNT>
0

> <PUBCHEM_COMPONENT_COUNT>
1

> <PUBCHEM_CACTVS_TAUTO_COUNT>
-1

> <PUBCHEM_COORDINATE_TYPE>
1
5
255

> <PUBCHEM_BONDANNOTATIONS>
29  10  5
42  11  5
30  12  5
31  13  6
32  14  6
33  15  6
35  16  5
36  17  6
38  18  5
40  19  5
41  20  6
21  53  8
21  54  8
25  43  5
26  44  5
34  3  5
45  47  6
46  48  5
49  52  8
49  53  8
37  5  6
50  55  8
50  56  8
51  52  8
51  54  8
51  57  8
54  55  8
56  57  8
58  59  8
58  60  8
59  61  8
60  62  8
61  63  8
62  63  8
27  7  6
39  8  5
28  9  6

$$$$
