71746620
  -OEChem-02242200132D

 42 42  0     1  0  0  0  0  0999 V2000
    3.6760    0.5205    0.0000 O   0  0  0  0  0  0  0  0  0  0  0  0
    2.3100   -0.8455    0.0000 O   0  0  0  0  0  0  0  0  0  0  0  0
    2.4440   -2.3455    0.0000 O   0  0  0  0  0  0  0  0  0  0  0  0
    4.1760   -3.3455    0.0000 O   0  0  0  0  0  0  0  0  0  0  0  0
    4.1760    3.1186    0.0000 O   0  0  0  0  0  0  0  0  0  0  0  0
    5.0420   -0.8455    0.0000 C   0  0  0  0  0  0  0  0  0  0  0  0
    4.1760   -0.3455    0.0000 C   0  0  2  0  0  0  0  0  0  0  0  0
    3.3100   -0.8455    0.0000 C   0  0  1  0  0  0  0  0  0  0  0  0
    5.0420   -1.8455    0.0000 C   0  0  0  0  0  0  0  0  0  0  0  0
    3.3100   -1.8455    0.0000 C   0  0  1  0  0  0  0  0  0  0  0  0
    4.1760   -2.3455    0.0000 C   0  0  1  0  0  0  0  0  0  0  0  0
    6.0420   -0.8455    0.0000 C   0  0  0  0  0  0  0  0  0  0  0  0
    5.8081   -0.2027    0.0000 C   0  0  0  0  0  0  0  0  0  0  0  0
    2.6672   -0.0795    0.0000 C   0  0  0  0  0  0  0  0  0  0  0  0
    4.6760    0.5205    0.0000 C   0  0  0  0  0  0  0  0  0  0  0  0
    4.1760    1.3865    0.0000 C   0  0  0  0  0  0  0  0  0  0  0  0
    4.6760    2.2526    0.0000 C   0  0  1  0  0  0  0  0  0  0  0  0
    5.6760    2.2526    0.0000 C   0  0  0  0  0  0  0  0  0  0  0  0
    5.2541   -2.4281    0.0000 H   0  0  0  0  0  0  0  0  0  0  0  0
    5.6526   -1.7379    0.0000 H   0  0  0  0  0  0  0  0  0  0  0  0
    3.3100   -2.4655    0.0000 H   0  0  0  0  0  0  0  0  0  0  0  0
    4.7130   -2.6555    0.0000 H   0  0  0  0  0  0  0  0  0  0  0  0
    6.0420   -1.4655    0.0000 H   0  0  0  0  0  0  0  0  0  0  0  0
    6.6620   -0.8455    0.0000 H   0  0  0  0  0  0  0  0  0  0  0  0
    6.0420   -0.2255    0.0000 H   0  0  0  0  0  0  0  0  0  0  0  0
    6.2066   -0.6777    0.0000 H   0  0  0  0  0  0  0  0  0  0  0  0
    6.2830    0.1958    0.0000 H   0  0  0  0  0  0  0  0  0  0  0  0
    5.4096    0.2722    0.0000 H   0  0  0  0  0  0  0  0  0  0  0  0
    3.1422    0.3191    0.0000 H   0  0  0  0  0  0  0  0  0  0  0  0
    2.2687    0.3955    0.0000 H   0  0  0  0  0  0  0  0  0  0  0  0
    2.1923   -0.4780    0.0000 H   0  0  0  0  0  0  0  0  0  0  0  0
    5.2586    0.7326    0.0000 H   0  0  0  0  0  0  0  0  0  0  0  0
    3.0655    0.6283    0.0000 H   0  0  0  0  0  0  0  0  0  0  0  0
    2.0000   -1.3824    0.0000 H   0  0  0  0  0  0  0  0  0  0  0  0
    2.4440   -2.9655    0.0000 H   0  0  0  0  0  0  0  0  0  0  0  0
    4.7130   -3.6555    0.0000 H   0  0  0  0  0  0  0  0  0  0  0  0
    3.5560    1.3865    0.0000 H   0  0  0  0  0  0  0  0  0  0  0  0
    4.0560    2.2526    0.0000 H   0  0  0  0  0  0  0  0  0  0  0  0
    5.6760    1.6326    0.0000 H   0  0  0  0  0  0  0  0  0  0  0  0
    6.2960    2.2526    0.0000 H   0  0  0  0  0  0  0  0  0  0  0  0
    5.6760    2.8726    0.0000 H   0  0  0  0  0  0  0  0  0  0  0  0
    4.4860    3.6555    0.0000 H   0  0  0  0  0  0  0  0  0  0  0  0
  7  1  1  6  0  0  0
  1 33  1  0  0  0  0
  8  2  1  1  0  0  0
  2 34  1  0  0  0  0
 10  3  1  1  0  0  0
  3 35  1  0  0  0  0
 11  4  1  6  0  0  0
  4 36  1  0  0  0  0
 17  5  1  6  0  0  0
  5 42  1  0  0  0  0
  6  7  1  0  0  0  0
  6  9  1  0  0  0  0
  6 12  1  0  0  0  0
  6 13  1  0  0  0  0
  7  8  1  0  0  0  0
  7 15  1  0  0  0  0
  8 10  1  0  0  0  0
  8 14  1  0  0  0  0
  9 11  1  0  0  0  0
  9 19  1  0  0  0  0
  9 20  1  0  0  0  0
 10 11  1  0  0  0  0
 10 21  1  0  0  0  0
 11 22  1  0  0  0  0
 12 23  1  0  0  0  0
 12 24  1  0  0  0  0
 12 25  1  0  0  0  0
 13 26  1  0  0  0  0
 13 27  1  0  0  0  0
 13 28  1  0  0  0  0
 14 29  1  0  0  0  0
 14 30  1  0  0  0  0
 14 31  1  0  0  0  0
 15 16  2  0  0  0  0
 15 32  1  0  0  0  0
 16 17  1  0  0  0  0
 16 37  1  0  0  0  0
 17 18  1  0  0  0  0
 17 38  1  0  0  0  0
 18 39  1  0  0  0  0
 18 40  1  0  0  0  0
 18 41  1  0  0  0  0
M  END
> <PUBCHEM_COMPOUND_CID>
71746620

> <PUBCHEM_COMPOUND_CANONICALIZED>
1

> <PUBCHEM_CACTVS_COMPLEXITY>
340

> <PUBCHEM_CACTVS_HBOND_ACCEPTOR>
5

> <PUBCHEM_CACTVS_HBOND_DONOR>
5

> <PUBCHEM_CACTVS_ROTATABLE_BOND>
2

> <PUBCHEM_CACTVS_SUBSKEYS>
AAADceBwOAAAAAAAAAAAAAAAAAAAAAAAAAAwAAAAAAAAAAAAAAAAGgAACAAADlSggAICAAAAAgCAACBCAAAAAAAgAAAICAAAAAgBFAIAAQAAUAAFwAAJEAPA4PQPgAAAAAAAAABCAAYQADCAAAAAAAAAAA==

> <PUBCHEM_IUPAC_OPENEYE_NAME>
(1R,2R,3R,4S)-1-[(E,3R)-3-hydroxybut-1-enyl]-2,6,6-trimethyl-cyclohexane-1,2,3,4-tetrol

> <PUBCHEM_IUPAC_CAS_NAME>
(1R,2R,3R,4S)-1-[(E,3R)-3-hydroxybut-1-enyl]-2,6,6-trimethylcyclohexane-1,2,3,4-tetrol

> <PUBCHEM_IUPAC_NAME_MARKUP>
(1<I>R</I>,2<I>R</I>,3<I>R</I>,4<I>S</I>)-1-[(<I>E</I>,3<I>R</I>)-3-hydroxybut-1-enyl]-2,6,6-trimethylcyclohexane-1,2,3,4-tetrol

> <PUBCHEM_IUPAC_NAME>
(1R,2R,3R,4S)-1-[(E,3R)-3-hydroxybut-1-enyl]-2,6,6-trimethylcyclohexane-1,2,3,4-tetrol

> <PUBCHEM_IUPAC_SYSTEMATIC_NAME>
(1R,2R,3R,4S)-2,6,6-trimethyl-1-[(E,3R)-3-oxidanylbut-1-enyl]cyclohexane-1,2,3,4-tetrol

> <PUBCHEM_IUPAC_TRADITIONAL_NAME>
(1R,2R,3R,4S)-1-[(E,3R)-3-hydroxybut-1-enyl]-2,6,6-trimethyl-cyclohexane-1,2,3,4-tetrol

> <PUBCHEM_IUPAC_INCHI>
InChI=1S/C13H24O5/c1-8(14)5-6-13(18)11(2,3)7-9(15)10(16)12(13,4)17/h5-6,8-10,14-18H,7H2,1-4H3/b6-5+/t8-,9+,10-,12-,13-/m1/s1

> <PUBCHEM_IUPAC_INCHIKEY>
OPHSNQSZCRVYBC-SARQSPIOSA-N

> <PUBCHEM_XLOGP3_AA>
-0.9

> <PUBCHEM_EXACT_MASS>
260.16237386

> <PUBCHEM_MOLECULAR_FORMULA>
C13H24O5

> <PUBCHEM_MOLECULAR_WEIGHT>
260.33

> <PUBCHEM_OPENEYE_CAN_SMILES>
CC(C=CC1(C(CC(C(C1(C)O)O)O)(C)C)O)O

> <PUBCHEM_OPENEYE_ISO_SMILES>
C[C@H](/C=C/[C@@]1([C@]([C@@H]([C@H](CC1(C)C)O)O)(C)O)O)O

> <PUBCHEM_CACTVS_TPSA>
101

> <PUBCHEM_MONOISOTOPIC_WEIGHT>
260.16237386

> <PUBCHEM_TOTAL_CHARGE>
0

> <PUBCHEM_HEAVY_ATOM_COUNT>
18

> <PUBCHEM_ATOM_DEF_STEREO_COUNT>
5

> <PUBCHEM_ATOM_UDEF_STEREO_COUNT>
0

> <PUBCHEM_BOND_DEF_STEREO_COUNT>
1

> <PUBCHEM_BOND_UDEF_STEREO_COUNT>
0

> <PUBCHEM_ISOTOPIC_ATOM_COUNT>
0

> <PUBCHEM_COMPONENT_COUNT>
1

> <PUBCHEM_CACTVS_TAUTO_COUNT>
-1

> <PUBCHEM_COORDINATE_TYPE>
1
5
255

> <PUBCHEM_BONDANNOTATIONS>
7  1  6
8  2  5
10  3  5
11  4  6
17  5  6

$$$$
