101992975
  -OEChem-02242200172D

112122  0     1  0  0  0  0  0999 V2000
   15.2757   -0.6645    0.0000 O   0  0  0  0  0  0  0  0  0  0  0  0
   11.8469    3.1494    0.0000 O   0  0  0  0  0  0  0  0  0  0  0  0
    9.8491   -1.9868    0.0000 O   0  0  0  0  0  0  0  0  0  0  0  0
   11.7314   -0.8598    0.0000 O   0  0  0  0  0  0  0  0  0  0  0  0
    4.7016    0.9275    0.0000 O   0  0  0  0  0  0  0  0  0  0  0  0
    2.4750   -1.7261    0.0000 O   0  0  0  0  0  0  0  0  0  0  0  0
   18.6654    1.6593    0.0000 O   0  0  0  0  0  0  0  0  0  0  0  0
   16.3519    4.2377    0.0000 O   0  0  0  0  0  0  0  0  0  0  0  0
    2.4203   -5.4330    0.0000 O   0  0  0  0  0  0  0  0  0  0  0  0
   15.7449    5.4460    0.0000 O   0  0  0  0  0  0  0  0  0  0  0  0
   19.3235   -1.8598    0.0000 O   0  0  0  0  0  0  0  0  0  0  0  0
    5.8162   -3.3192    0.0000 C   0  0  2  0  0  0  0  0  0  0  0  0
    5.8864   -2.3277    0.0000 C   0  0  2  0  0  0  0  0  0  0  0  0
   12.6975    1.7830    0.0000 C   0  0  1  0  0  0  0  0  0  0  0  0
    6.7369   -3.6940    0.0000 C   0  0  0  0  0  0  0  0  0  0  0  0
    6.8508   -2.0864    0.0000 C   0  0  0  0  0  0  0  0  0  0  0  0
   15.2757    0.9450    0.0000 C   0  0  1  0  0  0  0  0  0  0  0  0
   14.3295    0.6402    0.0000 C   0  0  0  0  0  0  0  0  0  0  0  0
    7.3792   -2.9352    0.0000 C   0  0  0  0  0  0  0  0  0  0  0  0
   13.4635    1.1402    0.0000 C   0  0  0  0  0  0  0  0  0  0  0  0
   12.7677    2.7746    0.0000 C   0  0  2  0  0  0  0  0  0  0  0  0
   15.8593    0.1402    0.0000 C   0  0  1  0  0  0  0  0  0  0  0  0
   11.7331    1.5417    0.0000 C   0  0  0  0  0  0  0  0  0  0  0  0
    4.9672   -3.8476    0.0000 C   0  0  0  0  0  0  0  0  0  0  0  0
    5.1204   -1.6849    0.0000 C   0  0  0  0  0  0  0  0  0  0  0  0
   14.3295   -0.3598    0.0000 C   0  0  0  0  0  0  0  0  0  0  0  0
    7.3218   -1.2042    0.0000 C   0  0  0  0  0  0  0  0  0  0  0  0
   11.2047    2.3906    0.0000 C   0  0  0  0  0  0  0  0  0  0  0  0
   16.0200    1.6128    0.0000 C   0  0  0  0  0  0  0  0  0  0  0  0
    8.3786   -2.9021    0.0000 C   0  0  0  0  0  0  0  0  0  0  0  0
   12.5975    0.6402    0.0000 C   0  0  0  0  0  0  0  0  0  0  0  0
   13.5120    3.4425    0.0000 C   0  0  0  0  0  0  0  0  0  0  0  0
   16.7254   -0.3598    0.0000 C   0  0  0  0  0  0  0  0  0  0  0  0
    8.3212   -1.1710    0.0000 C   0  0  0  0  0  0  0  0  0  0  0  0
   11.2621    0.6596    0.0000 C   0  0  0  0  0  0  0  0  0  0  0  0
   13.4635   -0.8598    0.0000 C   0  0  0  0  0  0  0  0  0  0  0  0
    8.8496   -2.0199    0.0000 C   0  0  0  0  0  0  0  0  0  0  0  0
   12.5975   -0.3598    0.0000 C   0  0  0  0  0  0  0  0  0  0  0  0
    4.0851   -3.3767    0.0000 C   0  0  0  0  0  0  0  0  0  0  0  0
    5.0004   -4.8471    0.0000 C   0  0  0  0  0  0  0  0  0  0  0  0
    4.1807   -2.0269    0.0000 C   0  0  0  0  0  0  0  0  0  0  0  0
    5.2940   -0.7001    0.0000 C   0  0  0  0  0  0  0  0  0  0  0  0
   10.2627    0.6264    0.0000 C   0  0  0  0  0  0  0  0  0  0  0  0
   10.2052    2.3575    0.0000 C   0  0  0  0  0  0  0  0  0  0  0  0
   15.8138    2.5913    0.0000 C   0  0  0  0  0  0  0  0  0  0  0  0
   16.9706    1.3021    0.0000 C   0  0  0  0  0  0  0  0  0  0  0  0
    8.7922   -0.2889    0.0000 C   0  0  0  0  0  0  0  0  0  0  0  0
    9.7342    1.4754    0.0000 C   0  0  0  0  0  0  0  0  0  0  0  0
    9.7917   -0.2557    0.0000 C   0  0  0  0  0  0  0  0  0  0  0  0
   13.3057    4.4210    0.0000 C   0  0  0  0  0  0  0  0  0  0  0  0
   14.4625    3.1318    0.0000 C   0  0  0  0  0  0  0  0  0  0  0  0
   16.7254   -1.3598    0.0000 C   0  0  0  0  0  0  0  0  0  0  0  0
   17.5914    0.1402    0.0000 C   0  0  0  0  0  0  0  0  0  0  0  0
    4.5280   -0.0573    0.0000 C   0  0  0  0  0  0  0  0  0  0  0  0
    3.4146   -1.3841    0.0000 C   0  0  0  0  0  0  0  0  0  0  0  0
    3.2362   -3.9052    0.0000 C   0  0  0  0  0  0  0  0  0  0  0  0
    4.1514   -5.3755    0.0000 C   0  0  0  0  0  0  0  0  0  0  0  0
   17.7149    1.9700    0.0000 C   0  0  0  0  0  0  0  0  0  0  0  0
   16.5581    3.2592    0.0000 C   0  0  0  0  0  0  0  0  0  0  0  0
    3.2693   -4.9045    0.0000 C   0  0  0  0  0  0  0  0  0  0  0  0
    3.5883   -0.3993    0.0000 C   0  0  0  0  0  0  0  0  0  0  0  0
   14.0500    5.0888    0.0000 C   0  0  0  0  0  0  0  0  0  0  0  0
   15.2068    3.7996    0.0000 C   0  0  0  0  0  0  0  0  0  0  0  0
   17.5914   -1.8598    0.0000 C   0  0  0  0  0  0  0  0  0  0  0  0
   18.4574   -0.3598    0.0000 C   0  0  0  0  0  0  0  0  0  0  0  0
   17.5086    2.9485    0.0000 C   0  0  0  0  0  0  0  0  0  0  0  0
   15.0006    4.7781    0.0000 C   0  0  0  0  0  0  0  0  0  0  0  0
   18.4574   -1.3598    0.0000 C   0  0  0  0  0  0  0  0  0  0  0  0
    5.2852   -2.9992    0.0000 H   0  0  0  0  0  0  0  0  0  0  0  0
    5.3156   -2.5697    0.0000 H   0  0  0  0  0  0  0  0  0  0  0  0
   13.4800    2.1148    0.0000 H   0  0  0  0  0  0  0  0  0  0  0  0
    6.4441   -4.2405    0.0000 H   0  0  0  0  0  0  0  0  0  0  0  0
    7.2496   -4.0426    0.0000 H   0  0  0  0  0  0  0  0  0  0  0  0
   15.8923    0.8794    0.0000 H   0  0  0  0  0  0  0  0  0  0  0  0
   13.3246    2.5021    0.0000 H   0  0  0  0  0  0  0  0  0  0  0  0
   16.2744    0.6008    0.0000 H   0  0  0  0  0  0  0  0  0  0  0  0
    6.9941   -0.6779    0.0000 H   0  0  0  0  0  0  0  0  0  0  0  0
    8.7062   -3.4284    0.0000 H   0  0  0  0  0  0  0  0  0  0  0  0
   12.0605    0.9502    0.0000 H   0  0  0  0  0  0  0  0  0  0  0  0
   11.5897    0.1332    0.0000 H   0  0  0  0  0  0  0  0  0  0  0  0
   13.4635   -1.4798    0.0000 H   0  0  0  0  0  0  0  0  0  0  0  0
    4.0645   -2.7571    0.0000 H   0  0  0  0  0  0  0  0  0  0  0  0
    5.5473   -5.1391    0.0000 H   0  0  0  0  0  0  0  0  0  0  0  0
    4.0730   -2.6375    0.0000 H   0  0  0  0  0  0  0  0  0  0  0  0
    5.8766   -0.4880    0.0000 H   0  0  0  0  0  0  0  0  0  0  0  0
    9.8776    2.8838    0.0000 H   0  0  0  0  0  0  0  0  0  0  0  0
   15.2245    2.7839    0.0000 H   0  0  0  0  0  0  0  0  0  0  0  0
   17.0984    0.6955    0.0000 H   0  0  0  0  0  0  0  0  0  0  0  0
    8.4646    0.2374    0.0000 H   0  0  0  0  0  0  0  0  0  0  0  0
    9.1146    1.4548    0.0000 H   0  0  0  0  0  0  0  0  0  0  0  0
   10.1193   -0.7821    0.0000 H   0  0  0  0  0  0  0  0  0  0  0  0
   12.7164    4.6136    0.0000 H   0  0  0  0  0  0  0  0  0  0  0  0
   14.5903    2.5251    0.0000 H   0  0  0  0  0  0  0  0  0  0  0  0
   16.1884   -1.6698    0.0000 H   0  0  0  0  0  0  0  0  0  0  0  0
   17.5914    0.7602    0.0000 H   0  0  0  0  0  0  0  0  0  0  0  0
    2.6892   -3.6132    0.0000 H   0  0  0  0  0  0  0  0  0  0  0  0
    4.1720   -5.9952    0.0000 H   0  0  0  0  0  0  0  0  0  0  0  0
    3.1133   -0.0008    0.0000 H   0  0  0  0  0  0  0  0  0  0  0  0
   13.9222    5.6955    0.0000 H   0  0  0  0  0  0  0  0  0  0  0  0
   15.7961    3.6070    0.0000 H   0  0  0  0  0  0  0  0  0  0  0  0
   10.1767   -2.5132    0.0000 H   0  0  0  0  0  0  0  0  0  0  0  0
   17.5914   -2.4798    0.0000 H   0  0  0  0  0  0  0  0  0  0  0  0
   18.9944   -0.0498    0.0000 H   0  0  0  0  0  0  0  0  0  0  0  0
   11.7314   -1.4798    0.0000 H   0  0  0  0  0  0  0  0  0  0  0  0
   17.9701    3.3626    0.0000 H   0  0  0  0  0  0  0  0  0  0  0  0
    4.2267    1.3260    0.0000 H   0  0  0  0  0  0  0  0  0  0  0  0
    2.0000   -1.3276    0.0000 H   0  0  0  0  0  0  0  0  0  0  0  0
   19.1269    2.0734    0.0000 H   0  0  0  0  0  0  0  0  0  0  0  0
   16.8134    4.6517    0.0000 H   0  0  0  0  0  0  0  0  0  0  0  0
    2.4409   -6.0527    0.0000 H   0  0  0  0  0  0  0  0  0  0  0  0
   15.6170    6.0527    0.0000 H   0  0  0  0  0  0  0  0  0  0  0  0
   19.3235   -2.4798    0.0000 H   0  0  0  0  0  0  0  0  0  0  0  0
  1 22  1  0  0  0  0
  1 26  1  0  0  0  0
  2 21  1  0  0  0  0
  2 28  1  0  0  0  0
  3 37  1  0  0  0  0
  3101  1  0  0  0  0
  4 38  1  0  0  0  0
  4104  1  0  0  0  0
  5 54  1  0  0  0  0
  5106  1  0  0  0  0
  6 55  1  0  0  0  0
  6107  1  0  0  0  0
  7 58  1  0  0  0  0
  7108  1  0  0  0  0
  8 59  1  0  0  0  0
  8109  1  0  0  0  0
  9 60  1  0  0  0  0
  9110  1  0  0  0  0
 10 67  1  0  0  0  0
 10111  1  0  0  0  0
 11 68  1  0  0  0  0
 11112  1  0  0  0  0
 12 13  1  0  0  0  0
 12 15  1  0  0  0  0
 12 24  1  6  0  0  0
 12 69  1  0  0  0  0
 13 16  1  0  0  0  0
 13 25  1  1  0  0  0
 13 70  1  0  0  0  0
 14 20  1  0  0  0  0
 14 21  1  0  0  0  0
 14 23  1  0  0  0  0
 14 71  1  1  0  0  0
 15 19  1  0  0  0  0
 15 72  1  0  0  0  0
 15 73  1  0  0  0  0
 16 19  1  0  0  0  0
 16 27  2  0  0  0  0
 17 18  1  0  0  0  0
 17 22  1  0  0  0  0
 17 29  1  6  0  0  0
 17 74  1  0  0  0  0
 18 20  2  0  0  0  0
 18 26  1  0  0  0  0
 19 30  2  0  0  0  0
 20 31  1  0  0  0  0
 21 32  1  1  0  0  0
 21 75  1  0  0  0  0
 22 33  1  1  0  0  0
 22 76  1  0  0  0  0
 23 28  2  0  0  0  0
 23 35  1  0  0  0  0
 24 39  2  0  0  0  0
 24 40  1  0  0  0  0
 25 41  2  0  0  0  0
 25 42  1  0  0  0  0
 26 36  2  0  0  0  0
 27 34  1  0  0  0  0
 27 77  1  0  0  0  0
 28 44  1  0  0  0  0
 29 45  2  0  0  0  0
 29 46  1  0  0  0  0
 30 37  1  0  0  0  0
 30 78  1  0  0  0  0
 31 38  2  0  0  0  0
 31 79  1  0  0  0  0
 32 50  2  0  0  0  0
 32 51  1  0  0  0  0
 33 52  2  0  0  0  0
 33 53  1  0  0  0  0
 34 37  2  0  0  0  0
 34 47  1  0  0  0  0
 35 43  2  0  0  0  0
 35 80  1  0  0  0  0
 36 38  1  0  0  0  0
 36 81  1  0  0  0  0
 39 56  1  0  0  0  0
 39 82  1  0  0  0  0
 40 57  2  0  0  0  0
 40 83  1  0  0  0  0
 41 55  1  0  0  0  0
 41 84  1  0  0  0  0
 42 54  2  0  0  0  0
 42 85  1  0  0  0  0
 43 48  1  0  0  0  0
 43 49  1  0  0  0  0
 44 48  2  0  0  0  0
 44 86  1  0  0  0  0
 45 59  1  0  0  0  0
 45 87  1  0  0  0  0
 46 58  2  0  0  0  0
 46 88  1  0  0  0  0
 47 49  2  0  0  0  0
 47 89  1  0  0  0  0
 48 90  1  0  0  0  0
 49 91  1  0  0  0  0
 50 62  1  0  0  0  0
 50 92  1  0  0  0  0
 51 63  2  0  0  0  0
 51 93  1  0  0  0  0
 52 64  1  0  0  0  0
 52 94  1  0  0  0  0
 53 65  2  0  0  0  0
 53 95  1  0  0  0  0
 54 61  1  0  0  0  0
 55 61  2  0  0  0  0
 56 60  2  0  0  0  0
 56 96  1  0  0  0  0
 57 60  1  0  0  0  0
 57 97  1  0  0  0  0
 58 66  1  0  0  0  0
 59 66  2  0  0  0  0
 61 98  1  0  0  0  0
 62 67  2  0  0  0  0
 62 99  1  0  0  0  0
 63 67  1  0  0  0  0
 63100  1  0  0  0  0
 64 68  2  0  0  0  0
 64102  1  0  0  0  0
 65 68  1  0  0  0  0
 65103  1  0  0  0  0
 66105  1  0  0  0  0
M  END
> <PUBCHEM_COMPOUND_CID>
101992975

> <PUBCHEM_COMPOUND_CANONICALIZED>
1

> <PUBCHEM_CACTVS_COMPLEXITY>
1650

> <PUBCHEM_CACTVS_HBOND_ACCEPTOR>
11

> <PUBCHEM_CACTVS_HBOND_DONOR>
9

> <PUBCHEM_CACTVS_ROTATABLE_BOND>
8

> <PUBCHEM_CACTVS_SUBSKEYS>
AAADcfB8PAAAAAAAAAAAAAAAAAAAAaJEAAAwYMGDAAAAAGgBVAAAGgAACAAADRSgmAIwBoAABgCAAiBCAAACCAAgIAAIiAAGCIgMJyKGMRqCeCClwBUIuAeA4PwO4AADCAAYAADAAAYQADAAAQAACAAAAA==

> <PUBCHEM_IUPAC_OPENEYE_NAME>
5-[(1S,2S)-6-[(E)-2-[(2R,3R)-3-[(2S,3S)-3-(3,5-dihydroxyphenyl)-6-hydroxy-2-(4-hydroxyphenyl)-2,3-dihydrobenzofuran-4-yl]-2-(4-hydroxyphenyl)-2,3-dihydrobenzofuran-5-yl]vinyl]-5-hydroxy-2-(4-hydroxyphenyl)indan-1-yl]benzene-1,3-diol

> <PUBCHEM_IUPAC_CAS_NAME>
5-[(1S,2S)-6-[(E)-2-[(2R,3R)-3-[(2S,3S)-3-(3,5-dihydroxyphenyl)-6-hydroxy-2-(4-hydroxyphenyl)-2,3-dihydrobenzofuran-4-yl]-2-(4-hydroxyphenyl)-2,3-dihydrobenzofuran-5-yl]ethenyl]-5-hydroxy-2-(4-hydroxyphenyl)-2,3-dihydro-1H-inden-1-yl]benzene-1,3-diol

> <PUBCHEM_IUPAC_NAME_MARKUP>
5-[(1<I>S</I>,2<I>S</I>)-6-[(<I>E</I>)-2-[(2<I>R</I>,3<I>R</I>)-3-[(2<I>S</I>,3<I>S</I>)-3-(3,5-dihydroxyphenyl)-6-hydroxy-2-(4-hydroxyphenyl)-2,3-dihydro-1-benzofuran-4-yl]-2-(4-hydroxyphenyl)-2,3-dihydro-1-benzofuran-5-yl]ethenyl]-5-hydroxy-2-(4-hydroxyphenyl)-2,3-dihydro-1<I>H</I>-inden-1-yl]benzene-1,3-diol

> <PUBCHEM_IUPAC_NAME>
5-[(1S,2S)-6-[(E)-2-[(2R,3R)-3-[(2S,3S)-3-(3,5-dihydroxyphenyl)-6-hydroxy-2-(4-hydroxyphenyl)-2,3-dihydro-1-benzofuran-4-yl]-2-(4-hydroxyphenyl)-2,3-dihydro-1-benzofuran-5-yl]ethenyl]-5-hydroxy-2-(4-hydroxyphenyl)-2,3-dihydro-1H-inden-1-yl]benzene-1,3-diol

> <PUBCHEM_IUPAC_SYSTEMATIC_NAME>
5-[(1S,2S)-6-[(E)-2-[(2R,3R)-3-[(2S,3S)-3-[3,5-bis(oxidanyl)phenyl]-2-(4-hydroxyphenyl)-6-oxidanyl-2,3-dihydro-1-benzofuran-4-yl]-2-(4-hydroxyphenyl)-2,3-dihydro-1-benzofuran-5-yl]ethenyl]-2-(4-hydroxyphenyl)-5-oxidanyl-2,3-dihydro-1H-inden-1-yl]benzene-1,3-diol

> <PUBCHEM_IUPAC_TRADITIONAL_NAME>
5-[(1S,2S)-6-[(E)-2-[(2R,3R)-3-[(2S,3S)-3-(3,5-dihydroxyphenyl)-6-hydroxy-2-(4-hydroxyphenyl)coumaran-4-yl]-2-(4-hydroxyphenyl)coumaran-5-yl]vinyl]-5-hydroxy-2-(4-hydroxyphenyl)indan-1-yl]resorcinol

> <PUBCHEM_IUPAC_INCHI>
InChI=1S/C57H44O11/c58-37-10-4-30(5-11-37)45-23-34-24-49(66)33(22-46(34)52(45)35-18-40(61)25-41(62)19-35)3-1-29-2-16-50-47(17-29)54(57(67-50)32-8-14-39(60)15-9-32)48-27-44(65)28-51-55(48)53(36-20-42(63)26-43(64)21-36)56(68-51)31-6-12-38(59)13-7-31/h1-22,24-28,45,52-54,56-66H,23H2/b3-1+/t45-,52-,53+,54+,56-,57+/m1/s1

> <PUBCHEM_IUPAC_INCHIKEY>
SPVHTVMXBGFLEG-IKQHZLIHSA-N

> <PUBCHEM_XLOGP3_AA>
10.5

> <PUBCHEM_EXACT_MASS>
904.28836222

> <PUBCHEM_MOLECULAR_FORMULA>
C57H44O11

> <PUBCHEM_MOLECULAR_WEIGHT>
904.9

> <PUBCHEM_OPENEYE_CAN_SMILES>
C1C(C(C2=CC(=C(C=C21)O)C=CC3=CC4=C(C=C3)OC(C4C5=C6C(C(OC6=CC(=C5)O)C7=CC=C(C=C7)O)C8=CC(=CC(=C8)O)O)C9=CC=C(C=C9)O)C1=CC(=CC(=C1)O)O)C1=CC=C(C=C1)O

> <PUBCHEM_OPENEYE_ISO_SMILES>
C1[C@@H]([C@H](C2=CC(=C(C=C21)O)/C=C/C3=CC4=C(C=C3)O[C@H]([C@@H]4C5=C6[C@@H]([C@H](OC6=CC(=C5)O)C7=CC=C(C=C7)O)C8=CC(=CC(=C8)O)O)C9=CC=C(C=C9)O)C1=CC(=CC(=C1)O)O)C1=CC=C(C=C1)O

> <PUBCHEM_CACTVS_TPSA>
201

> <PUBCHEM_MONOISOTOPIC_WEIGHT>
904.28836222

> <PUBCHEM_TOTAL_CHARGE>
0

> <PUBCHEM_HEAVY_ATOM_COUNT>
68

> <PUBCHEM_ATOM_DEF_STEREO_COUNT>
6

> <PUBCHEM_ATOM_UDEF_STEREO_COUNT>
0

> <PUBCHEM_BOND_DEF_STEREO_COUNT>
1

> <PUBCHEM_BOND_UDEF_STEREO_COUNT>
0

> <PUBCHEM_ISOTOPIC_ATOM_COUNT>
0

> <PUBCHEM_COMPONENT_COUNT>
1

> <PUBCHEM_CACTVS_TAUTO_COUNT>
-1

> <PUBCHEM_COORDINATE_TYPE>
1
5
255

> <PUBCHEM_BONDANNOTATIONS>
12  24  6
13  25  5
14  71  5
16  19  8
16  27  8
17  29  6
18  20  8
18  26  8
19  30  8
20  31  8
21  32  5
22  33  5
23  28  8
23  35  8
24  39  8
24  40  8
25  41  8
25  42  8
26  36  8
27  34  8
28  44  8
29  45  8
29  46  8
30  37  8
31  38  8
32  50  8
32  51  8
33  52  8
33  53  8
34  37  8
35  43  8
36  38  8
39  56  8
40  57  8
41  55  8
42  54  8
43  48  8
44  48  8
45  59  8
46  58  8
50  62  8
51  63  8
52  64  8
53  65  8
54  61  8
55  61  8
56  60  8
57  60  8
58  66  8
59  66  8
62  67  8
63  67  8
64  68  8
65  68  8

$$$$
