182999
  -OEChem-02242200182D

 57 62  0     1  0  0  0  0  0999 V2000
    6.8182   -2.9229    0.0000 O   0  0  0  0  0  0  0  0  0  0  0  0
    9.9890   -0.1104    0.0000 O   0  0  0  0  0  0  0  0  0  0  0  0
    7.6575    2.1989    0.0000 O   0  0  0  0  0  0  0  0  0  0  0  0
   10.4197   -3.4807    0.0000 O   0  0  0  0  0  0  0  0  0  0  0  0
    4.3574    0.9183    0.0000 O   0  0  0  0  0  0  0  0  0  0  0  0
    2.3649   -1.6338    0.0000 O   0  0  0  0  0  0  0  0  0  0  0  0
   10.1261    4.0528    0.0000 O   0  0  0  0  0  0  0  0  0  0  0  0
    6.9896   -1.3078    0.0000 C   0  0  1  0  0  0  0  0  0  0  0  0
    7.8906   -1.7417    0.0000 C   0  0  0  0  0  0  0  0  0  0  0  0
    6.3426   -2.0558    0.0000 C   0  0  1  0  0  0  0  0  0  0  0  0
    8.3906    0.4489    0.0000 C   0  0  2  0  0  0  0  0  0  0  0  0
    6.7671   -0.3329    0.0000 C   0  0  0  0  0  0  0  0  0  0  0  0
    9.0140   -0.3329    0.0000 C   0  0  2  0  0  0  0  0  0  0  0  0
    8.7915   -1.3078    0.0000 C   0  0  0  0  0  0  0  0  0  0  0  0
    7.3906    0.4489    0.0000 C   0  0  0  0  0  0  0  0  0  0  0  0
    7.7967   -2.7791    0.0000 C   0  0  0  0  0  0  0  0  0  0  0  0
    5.3482   -1.9503    0.0000 C   0  0  0  0  0  0  0  0  0  0  0  0
    8.8244    1.3499    0.0000 C   0  0  0  0  0  0  0  0  0  0  0  0
    9.6611   -1.8813    0.0000 C   0  0  0  0  0  0  0  0  0  0  0  0
    5.7348   -0.1936    0.0000 C   0  0  0  0  0  0  0  0  0  0  0  0
    7.0250    1.4243    0.0000 C   0  0  0  0  0  0  0  0  0  0  0  0
    8.6528   -3.3725    0.0000 C   0  0  0  0  0  0  0  0  0  0  0  0
    9.5913   -2.9206    0.0000 C   0  0  0  0  0  0  0  0  0  0  0  0
    5.3468    0.7731    0.0000 C   0  0  0  0  0  0  0  0  0  0  0  0
    5.9962    1.5875    0.0000 C   0  0  0  0  0  0  0  0  0  0  0  0
    4.7596   -2.7587    0.0000 C   0  0  0  0  0  0  0  0  0  0  0  0
    4.9423   -1.0364    0.0000 C   0  0  0  0  0  0  0  0  0  0  0  0
    8.2611    2.1761    0.0000 C   0  0  0  0  0  0  0  0  0  0  0  0
    9.8216    1.4246    0.0000 C   0  0  0  0  0  0  0  0  0  0  0  0
    3.7652   -2.6532    0.0000 C   0  0  0  0  0  0  0  0  0  0  0  0
    3.9479   -0.9309    0.0000 C   0  0  0  0  0  0  0  0  0  0  0  0
    8.6950    3.0771    0.0000 C   0  0  0  0  0  0  0  0  0  0  0  0
   10.2555    2.3256    0.0000 C   0  0  0  0  0  0  0  0  0  0  0  0
    3.3593   -1.7393    0.0000 C   0  0  0  0  0  0  0  0  0  0  0  0
    9.6922    3.1518    0.0000 C   0  0  0  0  0  0  0  0  0  0  0  0
    7.6542   -0.7779    0.0000 H   0  0  0  0  0  0  0  0  0  0  0  0
    5.9990   -2.5719    0.0000 H   0  0  0  0  0  0  0  0  0  0  0  0
    9.0067    0.5183    0.0000 H   0  0  0  0  0  0  0  0  0  0  0  0
    9.2188    0.2523    0.0000 H   0  0  0  0  0  0  0  0  0  0  0  0
   10.2166   -1.6058    0.0000 H   0  0  0  0  0  0  0  0  0  0  0  0
    5.3539   -0.6827    0.0000 H   0  0  0  0  0  0  0  0  0  0  0  0
    8.6041   -3.9906    0.0000 H   0  0  0  0  0  0  0  0  0  0  0  0
   10.4107   -0.5649    0.0000 H   0  0  0  0  0  0  0  0  0  0  0  0
    5.7720    2.1655    0.0000 H   0  0  0  0  0  0  0  0  0  0  0  0
    5.0112   -3.3254    0.0000 H   0  0  0  0  0  0  0  0  0  0  0  0
    5.3072   -0.5351    0.0000 H   0  0  0  0  0  0  0  0  0  0  0  0
    7.6429    2.1298    0.0000 H   0  0  0  0  0  0  0  0  0  0  0  0
   10.1709    0.9124    0.0000 H   0  0  0  0  0  0  0  0  0  0  0  0
    7.4377    2.7786    0.0000 H   0  0  0  0  0  0  0  0  0  0  0  0
    3.4003   -3.1545    0.0000 H   0  0  0  0  0  0  0  0  0  0  0  0
    3.6963   -0.3642    0.0000 H   0  0  0  0  0  0  0  0  0  0  0  0
    8.3458    3.5894    0.0000 H   0  0  0  0  0  0  0  0  0  0  0  0
   10.8738    2.3719    0.0000 H   0  0  0  0  0  0  0  0  0  0  0  0
   10.3757   -4.0991    0.0000 H   0  0  0  0  0  0  0  0  0  0  0  0
    4.1287    1.4946    0.0000 H   0  0  0  0  0  0  0  0  0  0  0  0
    2.0000   -2.1350    0.0000 H   0  0  0  0  0  0  0  0  0  0  0  0
   10.7444    4.0991    0.0000 H   0  0  0  0  0  0  0  0  0  0  0  0
  1 10  1  0  0  0  0
  1 16  1  0  0  0  0
 13  2  1  1  0  0  0
  2 43  1  0  0  0  0
  3 21  1  0  0  0  0
  3 49  1  0  0  0  0
  4 23  1  0  0  0  0
  4 54  1  0  0  0  0
  5 24  1  0  0  0  0
  5 55  1  0  0  0  0
  6 34  1  0  0  0  0
  6 56  1  0  0  0  0
  7 35  1  0  0  0  0
  7 57  1  0  0  0  0
  8  9  1  0  0  0  0
  8 10  1  0  0  0  0
  8 12  1  0  0  0  0
  8 36  1  6  0  0  0
  9 14  2  0  0  0  0
  9 16  1  0  0  0  0
 10 17  1  6  0  0  0
 10 37  1  0  0  0  0
 11 13  1  0  0  0  0
 11 15  1  0  0  0  0
 11 18  1  6  0  0  0
 11 38  1  0  0  0  0
 12 15  2  0  0  0  0
 12 20  1  0  0  0  0
 13 14  1  0  0  0  0
 13 39  1  0  0  0  0
 14 19  1  0  0  0  0
 15 21  1  0  0  0  0
 16 22  2  0  0  0  0
 17 26  2  0  0  0  0
 17 27  1  0  0  0  0
 18 28  2  0  0  0  0
 18 29  1  0  0  0  0
 19 23  2  0  0  0  0
 19 40  1  0  0  0  0
 20 24  2  0  0  0  0
 20 41  1  0  0  0  0
 21 25  2  0  0  0  0
 22 23  1  0  0  0  0
 22 42  1  0  0  0  0
 24 25  1  0  0  0  0
 25 44  1  0  0  0  0
 26 30  1  0  0  0  0
 26 45  1  0  0  0  0
 27 31  2  0  0  0  0
 27 46  1  0  0  0  0
 28 32  1  0  0  0  0
 28 47  1  0  0  0  0
 29 33  2  0  0  0  0
 29 48  1  0  0  0  0
 30 34  2  0  0  0  0
 30 50  1  0  0  0  0
 31 34  1  0  0  0  0
 31 51  1  0  0  0  0
 32 35  2  0  0  0  0
 32 52  1  0  0  0  0
 33 35  1  0  0  0  0
 33 53  1  0  0  0  0
M  END
> <PUBCHEM_COMPOUND_CID>
182999

> <PUBCHEM_COMPOUND_CANONICALIZED>
1

> <PUBCHEM_CACTVS_COMPLEXITY>
733

> <PUBCHEM_CACTVS_HBOND_ACCEPTOR>
7

> <PUBCHEM_CACTVS_HBOND_DONOR>
6

> <PUBCHEM_CACTVS_ROTATABLE_BOND>
2

> <PUBCHEM_CACTVS_SUBSKEYS>
AAADceB4OAAAAAAAAAAAAAAAAAAAASAAAAAwYMGABgAAAEiRVAAAGgAACAAADRSgmAIwBoAABgCAAiBCAAACCAAgIAAIiAAGCIgMNyKGMRqCeCClwBUIuAfA4PwOoAABCAAYAABAAAIQADAAAAAAAAAAAA==

> <PUBCHEM_IUPAC_OPENEYE_NAME>
(1S,8S,9R,16S)-8,16-bis(4-hydroxyphenyl)-15-oxatetracyclo[8.6.1.02,7.014,17]heptadeca-2(7),3,5,10(17),11,13-hexaene-4,6,9,12-tetrol

> <PUBCHEM_IUPAC_CAS_NAME>
(1S,8S,9R,16S)-8,16-bis(4-hydroxyphenyl)-15-oxatetracyclo[8.6.1.02,7.014,17]heptadeca-2(7),3,5,10(17),11,13-hexaene-4,6,9,12-tetrol

> <PUBCHEM_IUPAC_NAME_MARKUP>
(1<I>S</I>,8<I>S</I>,9<I>R</I>,16<I>S</I>)-8,16-bis(4-hydroxyphenyl)-15-oxatetracyclo[8.6.1.0<SUP>2,7</SUP>.0<SUP>14,17</SUP>]heptadeca-2(7),3,5,10(17),11,13-hexaene-4,6,9,12-tetrol

> <PUBCHEM_IUPAC_NAME>
(1S,8S,9R,16S)-8,16-bis(4-hydroxyphenyl)-15-oxatetracyclo[8.6.1.02,7.014,17]heptadeca-2(7),3,5,10(17),11,13-hexaene-4,6,9,12-tetrol

> <PUBCHEM_IUPAC_SYSTEMATIC_NAME>
(1S,8S,9R,16S)-8,16-bis(4-hydroxyphenyl)-15-oxatetracyclo[8.6.1.02,7.014,17]heptadeca-2(7),3,5,10(17),11,13-hexaene-4,6,9,12-tetrol

> <PUBCHEM_IUPAC_TRADITIONAL_NAME>
(1S,8S,9R,16S)-8,16-bis(4-hydroxyphenyl)-15-oxatetracyclo[8.6.1.02,7.014,17]heptadeca-2(7),3,5,10(17),11,13-hexaene-4,6,9,12-tetrol

> <PUBCHEM_IUPAC_INCHI>
InChI=1S/C28H22O7/c29-15-5-1-13(2-6-15)23-24-19(9-17(31)11-21(24)33)26-25-20(27(23)34)10-18(32)12-22(25)35-28(26)14-3-7-16(30)8-4-14/h1-12,23,26-34H/t23-,26-,27-,28+/m0/s1

> <PUBCHEM_IUPAC_INCHIKEY>
LHUHHURKGTUZHU-QWMXJGQVSA-N

> <PUBCHEM_XLOGP3_AA>
3.8

> <PUBCHEM_EXACT_MASS>
470.13655304

> <PUBCHEM_MOLECULAR_FORMULA>
C28H22O7

> <PUBCHEM_MOLECULAR_WEIGHT>
470.5

> <PUBCHEM_OPENEYE_CAN_SMILES>
C1=CC(=CC=C1C2C(C3=C4C(C(OC4=CC(=C3)O)C5=CC=C(C=C5)O)C6=C2C(=CC(=C6)O)O)O)O

> <PUBCHEM_OPENEYE_ISO_SMILES>
C1=CC(=CC=C1[C@@H]2[C@H](C3=C4[C@@H]([C@H](OC4=CC(=C3)O)C5=CC=C(C=C5)O)C6=C2C(=CC(=C6)O)O)O)O

> <PUBCHEM_CACTVS_TPSA>
131

> <PUBCHEM_MONOISOTOPIC_WEIGHT>
470.13655304

> <PUBCHEM_TOTAL_CHARGE>
0

> <PUBCHEM_HEAVY_ATOM_COUNT>
35

> <PUBCHEM_ATOM_DEF_STEREO_COUNT>
4

> <PUBCHEM_ATOM_UDEF_STEREO_COUNT>
0

> <PUBCHEM_BOND_DEF_STEREO_COUNT>
0

> <PUBCHEM_BOND_UDEF_STEREO_COUNT>
0

> <PUBCHEM_ISOTOPIC_ATOM_COUNT>
0

> <PUBCHEM_COMPONENT_COUNT>
1

> <PUBCHEM_CACTVS_TAUTO_COUNT>
308

> <PUBCHEM_COORDINATE_TYPE>
1
5
255

> <PUBCHEM_BONDANNOTATIONS>
10  17  6
11  18  6
12  15  8
12  20  8
14  19  8
15  21  8
16  22  8
17  26  8
17  27  8
18  28  8
18  29  8
19  23  8
13  2  5
20  24  8
21  25  8
22  23  8
24  25  8
26  30  8
27  31  8
28  32  8
29  33  8
30  34  8
31  34  8
32  35  8
33  35  8
8  36  6
9  14  8
9  16  8

$$$$
