10828743
  -OEChem-02242200312D

 41 43  0     0  0  0  0  0  0999 V2000
    7.2764   -1.6887    0.0000 O   0  0  0  0  0  0  0  0  0  0  0  0
    3.7320   -1.8840    0.0000 O   0  0  0  0  0  0  0  0  0  0  0  0
   10.8600    0.8481    0.0000 O   0  0  0  0  0  0  0  0  0  0  0  0
   10.8600   -2.6160    0.0000 O   0  0  0  0  0  0  0  0  0  0  0  0
    6.3301   -0.3840    0.0000 C   0  0  0  0  0  0  0  0  0  0  0  0
    6.3301   -1.3840    0.0000 C   0  0  0  0  0  0  0  0  0  0  0  0
    4.5981   -0.3840    0.0000 C   0  0  0  0  0  0  0  0  0  0  0  0
    7.8600   -0.8840    0.0000 C   0  0  0  0  0  0  0  0  0  0  0  0
    5.4641    0.1160    0.0000 C   0  0  0  0  0  0  0  0  0  0  0  0
    7.2764   -0.0792    0.0000 C   0  0  0  0  0  0  0  0  0  0  0  0
    2.8660    1.6160    0.0000 C   0  0  0  0  0  0  0  0  0  0  0  0
    5.4641   -1.8840    0.0000 C   0  0  0  0  0  0  0  0  0  0  0  0
    4.5981   -1.3840    0.0000 C   0  0  0  0  0  0  0  0  0  0  0  0
    8.8600   -0.8840    0.0000 C   0  0  0  0  0  0  0  0  0  0  0  0
    3.7320    0.1160    0.0000 C   0  0  0  0  0  0  0  0  0  0  0  0
    3.7320    1.1160    0.0000 C   0  0  0  0  0  0  0  0  0  0  0  0
    2.8660    2.6160    0.0000 C   0  0  0  0  0  0  0  0  0  0  0  0
    2.0000    1.1160    0.0000 C   0  0  0  0  0  0  0  0  0  0  0  0
    9.3600   -1.7500    0.0000 C   0  0  0  0  0  0  0  0  0  0  0  0
    9.3600   -0.0179    0.0000 C   0  0  0  0  0  0  0  0  0  0  0  0
   10.3600   -0.0179    0.0000 C   0  0  0  0  0  0  0  0  0  0  0  0
   10.3600   -1.7500    0.0000 C   0  0  0  0  0  0  0  0  0  0  0  0
   10.8600   -0.8840    0.0000 C   0  0  0  0  0  0  0  0  0  0  0  0
    5.4641    0.7360    0.0000 H   0  0  0  0  0  0  0  0  0  0  0  0
    2.8660    0.9960    0.0000 H   0  0  0  0  0  0  0  0  0  0  0  0
    7.4690    0.5101    0.0000 H   0  0  0  0  0  0  0  0  0  0  0  0
    5.4641   -2.5040    0.0000 H   0  0  0  0  0  0  0  0  0  0  0  0
    3.1951   -0.1940    0.0000 H   0  0  0  0  0  0  0  0  0  0  0  0
    4.2690    1.4260    0.0000 H   0  0  0  0  0  0  0  0  0  0  0  0
    3.4860    2.6160    0.0000 H   0  0  0  0  0  0  0  0  0  0  0  0
    2.8660    3.2360    0.0000 H   0  0  0  0  0  0  0  0  0  0  0  0
    2.2460    2.6160    0.0000 H   0  0  0  0  0  0  0  0  0  0  0  0
    1.6900    1.6530    0.0000 H   0  0  0  0  0  0  0  0  0  0  0  0
    1.4631    0.8060    0.0000 H   0  0  0  0  0  0  0  0  0  0  0  0
    2.3100    0.5791    0.0000 H   0  0  0  0  0  0  0  0  0  0  0  0
    9.0500   -2.2869    0.0000 H   0  0  0  0  0  0  0  0  0  0  0  0
    9.0500    0.5190    0.0000 H   0  0  0  0  0  0  0  0  0  0  0  0
   11.4800   -0.8840    0.0000 H   0  0  0  0  0  0  0  0  0  0  0  0
    3.7320   -2.5040    0.0000 H   0  0  0  0  0  0  0  0  0  0  0  0
   11.4800    0.8481    0.0000 H   0  0  0  0  0  0  0  0  0  0  0  0
   11.4800   -2.6160    0.0000 H   0  0  0  0  0  0  0  0  0  0  0  0
  1  6  1  0  0  0  0
  1  8  1  0  0  0  0
  2 13  1  0  0  0  0
  2 39  1  0  0  0  0
  3 21  1  0  0  0  0
  3 40  1  0  0  0  0
  4 22  1  0  0  0  0
  4 41  1  0  0  0  0
  5  6  1  0  0  0  0
  5  9  2  0  0  0  0
  5 10  1  0  0  0  0
  6 12  2  0  0  0  0
  7  9  1  0  0  0  0
  7 13  2  0  0  0  0
  7 15  1  0  0  0  0
  8 10  2  0  0  0  0
  8 14  1  0  0  0  0
  9 24  1  0  0  0  0
 10 26  1  0  0  0  0
 11 16  1  0  0  0  0
 11 17  1  0  0  0  0
 11 18  1  0  0  0  0
 11 25  1  0  0  0  0
 12 13  1  0  0  0  0
 12 27  1  0  0  0  0
 14 19  2  0  0  0  0
 14 20  1  0  0  0  0
 15 16  2  0  0  0  0
 15 28  1  0  0  0  0
 16 29  1  0  0  0  0
 17 30  1  0  0  0  0
 17 31  1  0  0  0  0
 17 32  1  0  0  0  0
 18 33  1  0  0  0  0
 18 34  1  0  0  0  0
 18 35  1  0  0  0  0
 19 22  1  0  0  0  0
 19 36  1  0  0  0  0
 20 21  2  0  0  0  0
 20 37  1  0  0  0  0
 21 23  1  0  0  0  0
 22 23  2  0  0  0  0
 23 38  1  0  0  0  0
M  END
> <PUBCHEM_COMPOUND_CID>
10828743

> <PUBCHEM_COMPOUND_CANONICALIZED>
1

> <PUBCHEM_CACTVS_COMPLEXITY>
412

> <PUBCHEM_CACTVS_HBOND_ACCEPTOR>
4

> <PUBCHEM_CACTVS_HBOND_DONOR>
3

> <PUBCHEM_CACTVS_ROTATABLE_BOND>
3

> <PUBCHEM_CACTVS_SUBSKEYS>
AAADceB4OAAAAAAAAAAAAAAAAAAAASAAAAAwYAAAAAAAAEgB9AAAGgAACAAADQSAmAAyBsAABkCIAqBSAAACCAAkIAAIiAEGCMgMJzaGNRqCeWCl4BUIuYfK7PzOIAADCAAIAABAAAYQABAAAAAAAAAAAA==

> <PUBCHEM_IUPAC_OPENEYE_NAME>
5-[6-hydroxy-5-[(E)-3-methylbut-1-enyl]benzofuran-2-yl]benzene-1,3-diol

> <PUBCHEM_IUPAC_CAS_NAME>
5-[6-hydroxy-5-[(E)-3-methylbut-1-enyl]-2-benzofuranyl]benzene-1,3-diol

> <PUBCHEM_IUPAC_NAME_MARKUP>
5-[6-hydroxy-5-[(<I>E</I>)-3-methylbut-1-enyl]-1-benzofuran-2-yl]benzene-1,3-diol

> <PUBCHEM_IUPAC_NAME>
5-[6-hydroxy-5-[(E)-3-methylbut-1-enyl]-1-benzofuran-2-yl]benzene-1,3-diol

> <PUBCHEM_IUPAC_SYSTEMATIC_NAME>
5-[5-[(E)-3-methylbut-1-enyl]-6-oxidanyl-1-benzofuran-2-yl]benzene-1,3-diol

> <PUBCHEM_IUPAC_TRADITIONAL_NAME>
5-[6-hydroxy-5-[(E)-3-methylbut-1-enyl]benzofuran-2-yl]resorcinol

> <PUBCHEM_IUPAC_INCHI>
InChI=1S/C19H18O4/c1-11(2)3-4-12-5-13-8-18(23-19(13)10-17(12)22)14-6-15(20)9-16(21)7-14/h3-11,20-22H,1-2H3/b4-3+

> <PUBCHEM_IUPAC_INCHIKEY>
KMSIOVRZJTULCD-ONEGZZNKSA-N

> <PUBCHEM_XLOGP3_AA>
4.7

> <PUBCHEM_EXACT_MASS>
310.12050905

> <PUBCHEM_MOLECULAR_FORMULA>
C19H18O4

> <PUBCHEM_MOLECULAR_WEIGHT>
310.3

> <PUBCHEM_OPENEYE_CAN_SMILES>
CC(C)C=CC1=C(C=C2C(=C1)C=C(O2)C3=CC(=CC(=C3)O)O)O

> <PUBCHEM_OPENEYE_ISO_SMILES>
CC(C)/C=C/C1=C(C=C2C(=C1)C=C(O2)C3=CC(=CC(=C3)O)O)O

> <PUBCHEM_CACTVS_TPSA>
73.8

> <PUBCHEM_MONOISOTOPIC_WEIGHT>
310.12050905

> <PUBCHEM_TOTAL_CHARGE>
0

> <PUBCHEM_HEAVY_ATOM_COUNT>
23

> <PUBCHEM_ATOM_DEF_STEREO_COUNT>
0

> <PUBCHEM_ATOM_UDEF_STEREO_COUNT>
0

> <PUBCHEM_BOND_DEF_STEREO_COUNT>
1

> <PUBCHEM_BOND_UDEF_STEREO_COUNT>
0

> <PUBCHEM_ISOTOPIC_ATOM_COUNT>
0

> <PUBCHEM_COMPONENT_COUNT>
1

> <PUBCHEM_CACTVS_TAUTO_COUNT>
-1

> <PUBCHEM_COORDINATE_TYPE>
1
5
255

> <PUBCHEM_BONDANNOTATIONS>
1  6  8
1  8  8
12  13  8
14  19  8
14  20  8
19  22  8
20  21  8
21  23  8
22  23  8
5  10  8
5  6  8
5  9  8
6  12  8
7  13  8
7  9  8
8  10  8

$$$$
